  MPI-parallelism will be employed.
------------------------------------------------------------
          Invoking FHI-aims ...
          Version 171221_1
          Compiled on 2020/07/14 at 14:43:00 on host scc1.

          When using FHI-aims, please cite the following reference:

          Volker Blum, Ralf Gehrke, Felix Hanke, Paula Havu,
          Ville Havu, Xinguo Ren, Karsten Reuter, and Matthias Scheffler,
          'Ab Initio Molecular Simulations with Numeric Atom-Centered Orbitals',
          Computer Physics Communications 180, 2175-2196 (2009)

          For any questions about FHI-aims, please visit the aimsclub website
          with its forums and wiki. Contributions to both the forums and the
          wiki are warmly encouraged - they are for you, and everyone is welcome there.

------------------------------------------------------------



  Date     :  20221012, Time     :  121341.709
  Time zero on CPU 1             :   0.662360000000000E-01  s.
  Internal wall clock time zero  :           434808821.709  s.

  FHI-aims created a unique identifier for this run for later identification
  aims_uuid : 07F561DC-23FA-46D5-A12F-4402C19CF88D

  Using       16 parallel tasks.
  Task        0 on host scc-gk1 reporting.
  Task        1 on host scc-gk1 reporting.
  Task        2 on host scc-gk1 reporting.
  Task        3 on host scc-gk1 reporting.
  Task        4 on host scc-gk1 reporting.
  Task        5 on host scc-gk1 reporting.
  Task        6 on host scc-gk1 reporting.
  Task        7 on host scc-gk1 reporting.
  Task        8 on host scc-gk1 reporting.
  Task        9 on host scc-gk1 reporting.
  Task       10 on host scc-gk1 reporting.
  Task       11 on host scc-gk1 reporting.
  Task       12 on host scc-gk1 reporting.
  Task       13 on host scc-gk1 reporting.
  Task       14 on host scc-gk1 reporting.
  Task       15 on host scc-gk1 reporting.

  Performing system and environment tests:
  | Environment variable OMP_NUM_THREADS correctly set to 1.
  | Stacksize not measured: no C compiler
  | Checking for scalapack...
  | Testing pdtran()...
  | All pdtran() tests passed.

  Obtaining array dimensions for all initial allocations:
  
  -----------------------------------------------------------------------
  Parsing control.in (first pass over file, find array dimensions only).
  The contents of control.in will be repeated verbatim below
  unless switched off by setting 'verbatim_writeout .false.' .
  in the first line of control.in .
  -----------------------------------------------------------------------
  
  ##################################################
  #
  #  input file : OMepyz
  #
  ##################################################
  #
  #  Physical model
  #
    xc                 pbe
    spin               none
    charge             0
  #  KS_method	     lapack_fast
  #
  #  SCF convergence
  #
    occupation_type    gaussian 0.01
    mixer              pulay
      n_max_pulay        10
      charge_mix_param   0.2
    sc_accuracy_rho    1E-4
    sc_accuracy_eev    1E-2
    sc_accuracy_etot   1E-6
  # sc_accuracy_forces 1E-4
    sc_iter_limit      500
  #
  #  Relaxation
  #
    relax_geometry   bfgs 1.e-2
  #
  
  #  output an overlap matrix & wave functions
  #  to enable a post-processor transport calculation :
  #   output aitranss
  
  #  to enable restart of the calculation
  #   restart aims.restart
  
  #  scalar-relativistic treatment
     relativistic atomic_zora scalar
  #################################################################################
  #
  #  FHI-aims code project
  #  VB, Fritz-Haber Institut, 2009
  #
  #  Suggested "light" defaults for H atom (to be pasted into control.in file)
  #  Be sure to double-check any results obtained with these settings for post-processing,
  #  e.g., with the "tight" defaults and larger basis sets.
  #
  ################################################################################
    species        H
  #     global species definitions
      nucleus             1
      mass                1.00794
  #
      l_hartree           4
  #
      cut_pot             3.5  1.5  1.0
      basis_dep_cutoff    1e-4
  #
      radial_base         24 5.0
      radial_multiplier   1
      angular_grids       specified
        division   0.2421   50
        division   0.3822  110
        division   0.4799  194
        division   0.5341  302
  #      division   0.5626  434
  #      division   0.5922  590
  #      division   0.6542  770
  #      division   0.6868 1202
  #      outer_grid  770
        outer_grid  302
  ################################################################################
  #
  #  Definition of "minimal" basis
  #
  ################################################################################
  #     valence basis states
      valence      1  s   1.
  #     ion occupancy
      ion_occ      1  s   0.5
  ################################################################################
  #
  #  Suggested additional basis functions. For production calculations,
  #  uncomment them one after another (the most important basis functions are
  #  listed first).
  #
  #  Basis constructed for dimers: 0.5 A, 0.7 A, 1.0 A, 1.5 A, 2.5 A
  #
  ################################################################################
  #  "First tier" - improvements: -1014.90 meV to -62.69 meV
       hydro 2 s 2.1
       hydro 2 p 3.5
  #  "Second tier" - improvements: -12.89 meV to -1.83 meV
  #     hydro 1 s 0.85
  #     hydro 2 p 3.7
  #     hydro 2 s 1.2
  #     hydro 3 d 7
  #  "Third tier" - improvements: -0.25 meV to -0.12 meV
  #     hydro 4 f 11.2
  #     hydro 3 p 4.8
  #     hydro 4 d 9
  #     hydro 3 s 3.2
  ################################################################################
  #
  #  FHI-aims code project
  #  VB, Fritz-Haber Institut, 2009
  #
  #  Suggested "light" defaults for C atom (to be pasted into control.in file)
  #  Be sure to double-check any results obtained with these settings for post-processing,
  #  e.g., with the "tight" defaults and larger basis sets.
  #
  ################################################################################
    species        C
  #     global species definitions
      nucleus             6
      mass                12.0107
  #
      l_hartree           4
  #
      cut_pot             3.5  1.5  1.0
      basis_dep_cutoff    1e-4
  #
      radial_base         34 5.0
      radial_multiplier   1
      angular_grids specified
        division   0.3326   50
        division   0.5710  110
        division   0.7727  194
        division   0.8772  302
  #      division   0.9334  434
  #      division   0.9625  590
  #      division   0.9924  770
  #      division   1.0230  974
  #      division   1.4589 1202
  #     outer_grid  974
       outer_grid 302
  ################################################################################
  #
  #  Definition of "minimal" basis
  #
  ################################################################################
  #     valence basis states
      valence      2  s   2.
      valence      2  p   2.
  #     ion occupancy
      ion_occ      2  s   1.
      ion_occ      2  p   1.
  ################################################################################
  #
  #  Suggested additional basis functions. For production calculations,
  #  uncomment them one after another (the most important basis functions are
  #  listed first).
  #
  #  Constructed for dimers: 1.0 A, 1.25 A, 1.5 A, 2.0 A, 3.0 A
  #
  ################################################################################
  #  "First tier" - improvements: -1214.57 meV to -155.61 meV
       hydro 2 p 1.7
       hydro 3 d 6
       hydro 2 s 4.9
  #  "Second tier" - improvements: -67.75 meV to -5.23 meV
  #     hydro 4 f 9.8
  #     hydro 3 p 5.2
  #     hydro 3 s 4.3
  #     hydro 5 g 14.4
  #     hydro 3 d 6.2
  #  "Third tier" - improvements: -2.43 meV to -0.60 meV
  #     hydro 2 p 5.6
  #     hydro 2 s 1.4
  #     hydro 3 d 4.9
  #     hydro 4 f 11.2
  #  "Fourth tier" - improvements: -0.39 meV to -0.18 meV
  #     hydro 2 p 2.1
  #     hydro 5 g 16.4
  #     hydro 4 d 13.2
  #     hydro 3 s 13.6
  #     hydro 4 f 17.6
  #  Further basis functions - improvements: -0.08 meV and below
  #     hydro 3 s 2
  #     hydro 3 p 6
  #     hydro 4 d 20
  ################################################################################
  #
  #  FHI-aims code project
  #  VB, Fritz-Haber Institut, 2009
  #
  #  Suggested "light" defaults for N atom (to be pasted into control.in file)
  #  Be sure to double-check any results obtained with these settings for post-processing,
  #  e.g., with the "tight" defaults and larger basis sets.
  #
  ################################################################################
    species        N
  #     global species definitions
      nucleus             7
      mass                14.0067
  #
      l_hartree           4
  #
      cut_pot             3.5  1.5  1.0
      basis_dep_cutoff    1e-4
  #
      radial_base         35 5.0
      radial_multiplier   1
      angular_grids       specified
        division   0.2599   50
        division   0.4601  110
        division   0.5885  194
        division   0.6503  302
  #      division   0.6939  434
  #      division   0.7396  590
  #      division   0.7632  770
  #      division   0.8122  974
  #      division   1.1604 1202
  #      outer_grid  974
        outer_grid  302
  ################################################################################
  #
  #  Definition of "minimal" basis
  #
  ################################################################################
  #     valence basis states
      valence      2  s   2.
      valence      2  p   3.
  #     ion occupancy
      ion_occ      2  s   1.
      ion_occ      2  p   2.
  ################################################################################
  #
  #  Suggested additional basis functions. For production calculations,
  #  uncomment them one after another (the most important basis functions are
  #  listed first).
  #
  #  Constructed for dimers: 1.0 A, 1.1 A, 1.5 A, 2.0 A, 3.0 A
  #
  ################################################################################
  #  "First tier" - improvements: -1193.42 meV to -220.60 meV
       hydro 2 p 1.8
       hydro 3 d 6.8
       hydro 3 s 5.8
  #  "Second tier" - improvements: -80.21 meV to -6.86 meV
  #     hydro 4 f 10.8
  #     hydro 3 p 5.8
  #     hydro 1 s 0.8
  #     hydro 5 g 16
  #     hydro 3 d 4.9
  #  "Third tier" - improvements: -4.29 meV to -0.53 meV
  #     hydro 3 s 16
  #     ionic 2 p auto
  #     hydro 3 d 6.6
  #     hydro 4 f 11.6
  #  "Fourth tier" - improvements: -0.75 meV to -0.25 meV
  #     hydro 2 p 4.5
  #     hydro 2 s 2.4
  #     hydro 5 g 14.4
  #     hydro 4 d 14.4
  #     hydro 4 f 16.8
  # Further basis functions - -0.21 meV and below
  #     hydro 3 p 14.8
  #     hydro 3 s 4.4
  #     hydro 3 d 19.6
  #     hydro 5 g 12.8
  ################################################################################
  #
  #  FHI-aims code project
  #  VB, Fritz-Haber Institut, 2009
  #
  #  Suggested "light" defaults for O atom (to be pasted into control.in file)
  #  Be sure to double-check any results obtained with these settings for post-processing,
  #  e.g., with the "tight" defaults and larger basis sets.
  #
  ################################################################################
    species        O
  #     global species definitions
      nucleus             8
      mass                15.9994
  #
      l_hartree           4
  #
      cut_pot             3.5  1.5  1.0
      basis_dep_cutoff    1e-4
  #
      radial_base         36 5.0
      radial_multiplier   1
       angular_grids specified
        division   0.2659   50
        division   0.4451  110
        division   0.6052  194
        division   0.7543  302
  #      division   0.8014  434
  #      division   0.8507  590
  #      division   0.8762  770
  #      division   0.9023  974
  #      division   1.2339 1202
  #      outer_grid 974
        outer_grid 302
  ################################################################################
  #
  #  Definition of "minimal" basis
  #
  ################################################################################
  #     valence basis states
      valence      2  s   2.
      valence      2  p   4.
  #     ion occupancy
      ion_occ      2  s   1.
      ion_occ      2  p   3.
  ################################################################################
  #
  #  Suggested additional basis functions. For production calculations,
  #  uncomment them one after another (the most important basis functions are
  #  listed first).
  #
  #  Constructed for dimers: 1.0 A, 1.208 A, 1.5 A, 2.0 A, 3.0 A
  #
  ################################################################################
  #  "First tier" - improvements: -699.05 meV to -159.38 meV
       hydro 2 p 1.8
       hydro 3 d 7.6
       hydro 3 s 6.4
  #  "Second tier" - improvements: -49.91 meV to -5.39 meV
  #     hydro 4 f 11.6
  #     hydro 3 p 6.2
  #     hydro 3 d 5.6
  #     hydro 5 g 17.6
  #     hydro 1 s 0.75
  #  "Third tier" - improvements: -2.83 meV to -0.50 meV
  #     ionic 2 p auto
  #     hydro 4 f 10.8
  #     hydro 4 d 4.7
  #     hydro 2 s 6.8
  #  "Fourth tier" - improvements: -0.40 meV to -0.12 meV
  #     hydro 3 p 5
  #     hydro 3 s 3.3
  #     hydro 5 g 15.6
  #     hydro 4 f 17.6
  #     hydro 4 d 14
  # Further basis functions - -0.08 meV and below
  #     hydro 3 s 2.1
  #     hydro 4 d 11.6
  #     hydro 3 p 16
  #     hydro 2 s 17.2
  ################################################################################
    species        Au
  #     global species definitions
      nucleus             79
      mass                196.966569
  #
      l_hartree           4
  #
      cut_pot             3.5  1.5  1.0
      basis_dep_cutoff    1e-4
  #
      radial_base         73 5.0
      radial_multiplier   1
      angular_grids specified
        division   0.5066   50
        division   0.9861  110
        division   1.2821  194
        division   1.5344  302
  #      division   2.0427  434
  #      division   2.1690  590
  #      division   2.2710  770
  #      division   2.3066  974
  #      division   2.7597 1202
  #      outer_grid 974
        outer_grid 302
  ################################################################################
  #
  #  Definition of "minimal" basis
  #
  ################################################################################
  #     valence basis states
      valence      6  s   1.
      valence      5  p   6.
      valence      5  d  10.
      valence      4  f  14.
  #     ion occupancy
      ion_occ     6  s   0.
      ion_occ     5  p   6.
      ion_occ     5  d   9.
      ion_occ     4  f   14.
  ################################################################################
  #
  #  Suggested additional basis functions. For production calculations,
  #  uncomment them one after another (the most important basis functions are
  #  listed first).
  #
  #  Constructed for dimers: 2.10, 2.45, 3.00, 4.00 AA
  #
  ################################################################################
  #  "First tier" - max. impr. -161.60  meV, min. impr. -4.53 meV
       ionic 6 p auto
       hydro 4 f 7.4
       ionic 6 s auto
  #     hydro 5 g 10
  #     hydro 6 h 12.8
       hydro 3 d 2.5
  #  "Second tier" - max. impr. -2.46  meV, min. impr. -0.28 meV
  #     hydro 5 f 14.8
  #     hydro 4 d 3.9
  #     hydro 3 p 3.3
  #     hydro 1 s 0.45
  #     hydro 5 g 16.4
  #     hydro 6 h 13.6
  #  "Third tier" - max. impr. -0.49  meV, min. impr. -0.09 meV
  #     hydro 4 f 5.2
  #     hydro 4 d 5
  #     hydro 5 g 8
  #     hydro 5 p 8.2
  #     hydro 6 d 12.4
  #     hydro 6 s 14.8
  #  Further basis functions: -0.08 meV and below
  #     hydro 5 f 18.8
  #     hydro 5 g 20
  #    hydro 5 g 15.2
  
  
  -----------------------------------------------------------------------
  Completed first pass over input file control.in .
  -----------------------------------------------------------------------
  
  
  -----------------------------------------------------------------------
  Parsing geometry.in (first pass over file, find array dimensions only).
  The contents of geometry.in will be repeated verbatim below
  unless switched off by setting 'verbatim_writeout .false.' .
  in the first line of geometry.in .
  -----------------------------------------------------------------------
  
  # opt: au
  atom     -2.00575656     2.16664840     11.3530074     N
  atom     -2.75752757     3.24745555     11.5487064     C
  atom     -1.81550179     2.03775891     9.98400905     C
  atom     -2.47459616     3.06776240     9.35165954     C
  atom     -3.05928730     3.81755880     10.35479643     N
  atom     -3.08329720     3.62745699     12.51084156     H
  atom     -2.56964396     3.32186105     8.30233549     H
  atom     -1.03436862     0.91460858     9.39043488     C
  atom     -0.02408484     0.89506438     9.83344865     H
  atom     -0.91640803     1.08672285     8.30846321     H
  atom     -1.71700418     -0.44134117     9.60473661     C
  atom     -1.73438183     -0.69216523     10.68030893     H
  atom     -2.75416277     -0.40154139     9.24446715     H
  atom     -1.01450968     -1.49333616     8.82464142     N
  atom     -0.04556633     -1.58579616     9.14733896     H
  atom     -1.45725740     -2.40271641     8.98473998     H
  atom     -3.61320062     4.65946393     10.22612282     H
  atom     -1.02064292     -1.11638606     6.6465724     Au
  atom     -0.97423850     0.95466583     4.81277337     Au
  atom     0.92443650     -1.28679378     4.70897149     Au
  atom     -1.94892156     -1.79662768     4.22872966     Au
  atom     -0.98364858     2.90868289     2.78397374     Au
    constrain_relaxation .true.
  atom     0.89728549     0.72320790     2.74342713     Au
    constrain_relaxation .true.
  atom     2.77821955     -1.46226708     2.7028805     Au
    constrain_relaxation .true.
  atom     -1.90122553     0.22622760     2.25639062     Au
    constrain_relaxation .true.
  atom     -0.02029146     -1.95924740     2.21584399     Au
    constrain_relaxation .true.
  atom     -2.81880248     -2.45622772     1.72880748     Au
    constrain_relaxation .true.
  atom     0.91757695     2.68245530     0.62758314     Au
    constrain_relaxation .true.
  atom     2.79851101     0.49698031     0.58703651     Au
    constrain_relaxation .true.
  atom     -1.88093406     2.18547499     0.14054663     Au
    constrain_relaxation .true.
  atom     0.00000000     0.00000000     0.1     Au
    constrain_relaxation .true.
  atom     1.88093406     -2.18547499     0.05945338     Au
    constrain_relaxation .true.
  atom     -2.79851101     -0.49698032     -0.3870365     Au
    constrain_relaxation .true.
  atom     -0.91757696     -2.68245530     -0.42758313     Au
    constrain_relaxation .true.
  atom     -3.78215957     2.41170258     2.29693724     Au
    constrain_relaxation .true.
  atom     -1.30508380     0.89656402     12.95583431     Au
  atom     -0.21874061     -0.90661392     14.62817975     Au
  atom     0.16330092     1.97424227     15.02374829     Au
  atom     -2.56397231     0.79586763     15.36690207     Au
  atom     0.80067538     -2.72226339     16.53960063     Au
    constrain_relaxation .true.
  atom     1.18422876     0.11978134     16.84213394     Au
    constrain_relaxation .true.
  atom     1.56778214     2.96182608     17.14466725     Au
    constrain_relaxation .true.
  atom     -1.43900279     -1.02624961     17.1901671     Au
    constrain_relaxation .true.
  atom     -1.05544942     1.81579512     17.49270041     Au
    constrain_relaxation .true.
  atom     -3.67868099     0.66976417     17.84073358     Au
    constrain_relaxation .true.
  atom     2.23967818     -1.69601378     18.81818365     Au
    constrain_relaxation .true.
  atom     2.62323157     1.14603095     19.12071695     Au
    constrain_relaxation .true.
  atom     -0.38355337     -2.84204474     19.1662168     Au
    constrain_relaxation .true.
  atom     0.00000000     0.00000000     19.46875011     Au
    constrain_relaxation .true.
  atom     0.38355338     2.84204474     19.77128342     Au
    constrain_relaxation .true.
  atom     -2.62323155     -1.14603095     19.81678328     Au
    constrain_relaxation .true.
  atom     -2.23967818     1.69601379     20.11931659     Au
    constrain_relaxation .true.
  atom     -1.82255617     -3.86829434     16.8876338     Au
    constrain_relaxation .true.
  
  -----------------------------------------------------------------------
  Completed first pass over input file geometry.in .
  -----------------------------------------------------------------------
  

  Basic array size parameters:
  | Number of species                 :        5
  | Number of atoms                   :       53
  | Max. basis fn. angular momentum   :        3
  | Max. atomic/ionic basis occupied n:        6
  | Max. number of basis fn. types    :        3
  | Max. radial fns per species/type  :       14
  | Max. logarithmic grid size        :     1488
  | Max. radial integration grid size :       73
  | Max. angular integration grid size:      302
  | Max. angular grid division number :        8
  | Radial grid for Hartree potential :     1488
  | Number of spin channels           :        1

------------------------------------------------------------
          Reading file control.in.
------------------------------------------------------------
  XC: Using PBE gradient-corrected functionals.
  Spin treatment: No spin polarisation.
  Charge =   0.000000E+00: Neutral system requested explicitly.
  Occupation type: Gaussian broadening, width =   0.100000E-01 eV.
  Using pulay charge density mixing.
  Pulay mixing - number of memorized iterations:   10
  Charge density mixing - mixing parameter:     0.2000
  Convergence accuracy of self-consistent charge density:  0.1000E-03
  Convergence accuracy of sum of eigenvalues:  0.1000E-01
  Convergence accuracy of total energy:  0.1000E-05
  Maximum number of s.-c. iterations  :   500
  Geometry relaxation: Modified BFGS - TRM (trust radius method, i.e., trusted quadratic extrapolation).
  Convergence accuracy for geometry relaxation: Maximum force <   0.100000E-01 eV/A.
  Scalar relativistic treatment of kinetic energy: on-site free-atom approximation to ZORA.
 
  Reading configuration options for species H                   .
  | Found nuclear charge :   1.0000
  | Found atomic mass :    1.00794000000000      amu
  | Found l_max for Hartree potential  :   4
  | Found cutoff potl. onset [A], width [A], scale factor :    3.50000    1.50000    1.00000
  | Threshold for basis-dependent cutoff potential is   0.100000E-03
  | Found data for basic radial integration grid :    24 points, outermost radius =    5.000 A
  | Found multiplier for basic radial grid :   1
  | Found angular grid specification: user-specified.
  | Specified grid contains     5 separate shells.
  | Check grid settings after all constraints further below.
  | Found free-atom valence shell :  1 s   1.000
  | Found free-ion valence shell :  1 s   0.500
  | Found hydrogenic basis function :  2 s   2.100
  | Found hydrogenic basis function :  2 p   3.500
  Species H                   : Missing cutoff potential type.
  Defaulting to exp(1/x)/(1-x)^2 type cutoff potential.
  Species H : No 'logarithmic' tag. Using default grid for free atom:
  | Default logarithmic grid data [bohr] : 0.1000E-03 0.1000E+03 0.1012E+01
  Species H : On-site basis accuracy parameter (for Gram-Schmidt orthonormalisation) not specified.
  Using default value basis_acc =  0.1000000E-03.
  Species H                   : Using default innermost maximum threshold i_radial=  2 for radial functions.
  Species H                   : Default cutoff onset for free atom density etc. : 0.35000000E+01 AA.
  Species H                   : Basic radial grid will be enhanced according to radial_multiplier =   1, to contain    24 grid points.
 
  Reading configuration options for species C                   .
  | Found nuclear charge :   6.0000
  | Found atomic mass :    12.0107000000000      amu
  | Found l_max for Hartree potential  :   4
  | Found cutoff potl. onset [A], width [A], scale factor :    3.50000    1.50000    1.00000
  | Threshold for basis-dependent cutoff potential is   0.100000E-03
  | Found data for basic radial integration grid :    34 points, outermost radius =    5.000 A
  | Found multiplier for basic radial grid :   1
  | Found angular grid specification: user-specified.
  | Specified grid contains     5 separate shells.
  | Check grid settings after all constraints further below.
  | Found free-atom valence shell :  2 s   2.000
  | Found free-atom valence shell :  2 p   2.000
  | Found free-ion valence shell :  2 s   1.000
  | Found free-ion valence shell :  2 p   1.000
  | Found hydrogenic basis function :  2 p   1.700
  | Found hydrogenic basis function :  3 d   6.000
  | Found hydrogenic basis function :  2 s   4.900
  Species C                   : Missing cutoff potential type.
  Defaulting to exp(1/x)/(1-x)^2 type cutoff potential.
  Species C : No 'logarithmic' tag. Using default grid for free atom:
  | Default logarithmic grid data [bohr] : 0.1000E-03 0.1000E+03 0.1012E+01
  Species C : On-site basis accuracy parameter (for Gram-Schmidt orthonormalisation) not specified.
  Using default value basis_acc =  0.1000000E-03.
  Species C                   : Using default innermost maximum threshold i_radial=  2 for radial functions.
  Species C                   : Default cutoff onset for free atom density etc. : 0.35000000E+01 AA.
  Species C                   : Basic radial grid will be enhanced according to radial_multiplier =   1, to contain    34 grid points.
 
  Reading configuration options for species N                   .
  | Found nuclear charge :   7.0000
  | Found atomic mass :    14.0067000000000      amu
  | Found l_max for Hartree potential  :   4
  | Found cutoff potl. onset [A], width [A], scale factor :    3.50000    1.50000    1.00000
  | Threshold for basis-dependent cutoff potential is   0.100000E-03
  | Found data for basic radial integration grid :    35 points, outermost radius =    5.000 A
  | Found multiplier for basic radial grid :   1
  | Found angular grid specification: user-specified.
  | Specified grid contains     5 separate shells.
  | Check grid settings after all constraints further below.
  | Found free-atom valence shell :  2 s   2.000
  | Found free-atom valence shell :  2 p   3.000
  | Found free-ion valence shell :  2 s   1.000
  | Found free-ion valence shell :  2 p   2.000
  | Found hydrogenic basis function :  2 p   1.800
  | Found hydrogenic basis function :  3 d   6.800
  | Found hydrogenic basis function :  3 s   5.800
  Species N                   : Missing cutoff potential type.
  Defaulting to exp(1/x)/(1-x)^2 type cutoff potential.
  Species N : No 'logarithmic' tag. Using default grid for free atom:
  | Default logarithmic grid data [bohr] : 0.1000E-03 0.1000E+03 0.1012E+01
  Species N : On-site basis accuracy parameter (for Gram-Schmidt orthonormalisation) not specified.
  Using default value basis_acc =  0.1000000E-03.
  Species N                   : Using default innermost maximum threshold i_radial=  2 for radial functions.
  Species N                   : Default cutoff onset for free atom density etc. : 0.35000000E+01 AA.
  Species N                   : Basic radial grid will be enhanced according to radial_multiplier =   1, to contain    35 grid points.
 
  Reading configuration options for species O                   .
  | Found nuclear charge :   8.0000
  | Found atomic mass :    15.9994000000000      amu
  | Found l_max for Hartree potential  :   4
  | Found cutoff potl. onset [A], width [A], scale factor :    3.50000    1.50000    1.00000
  | Threshold for basis-dependent cutoff potential is   0.100000E-03
  | Found data for basic radial integration grid :    36 points, outermost radius =    5.000 A
  | Found multiplier for basic radial grid :   1
  | Found angular grid specification: user-specified.
  | Specified grid contains     5 separate shells.
  | Check grid settings after all constraints further below.
  | Found free-atom valence shell :  2 s   2.000
  | Found free-atom valence shell :  2 p   4.000
  | Found free-ion valence shell :  2 s   1.000
  | Found free-ion valence shell :  2 p   3.000
  | Found hydrogenic basis function :  2 p   1.800
  | Found hydrogenic basis function :  3 d   7.600
  | Found hydrogenic basis function :  3 s   6.400
  Species O                   : Missing cutoff potential type.
  Defaulting to exp(1/x)/(1-x)^2 type cutoff potential.
  Species O : No 'logarithmic' tag. Using default grid for free atom:
  | Default logarithmic grid data [bohr] : 0.1000E-03 0.1000E+03 0.1012E+01
  Species O : On-site basis accuracy parameter (for Gram-Schmidt orthonormalisation) not specified.
  Using default value basis_acc =  0.1000000E-03.
  Species O                   : Using default innermost maximum threshold i_radial=  2 for radial functions.
  Species O                   : Default cutoff onset for free atom density etc. : 0.35000000E+01 AA.
  Species O                   : Basic radial grid will be enhanced according to radial_multiplier =   1, to contain    36 grid points.
 
  Reading configuration options for species Au                  .
  | Found nuclear charge :  79.0000
  | Found atomic mass :    196.966569000000      amu
  | Found l_max for Hartree potential  :   4
  | Found cutoff potl. onset [A], width [A], scale factor :    3.50000    1.50000    1.00000
  | Threshold for basis-dependent cutoff potential is   0.100000E-03
  | Found data for basic radial integration grid :    73 points, outermost radius =    5.000 A
  | Found multiplier for basic radial grid :   1
  | Found angular grid specification: user-specified.
  | Specified grid contains     5 separate shells.
  | Check grid settings after all constraints further below.
  | Found free-atom valence shell :  6 s   1.000
  | Found free-atom valence shell :  5 p   6.000
  | Found free-atom valence shell :  5 d  10.000
  | Found free-atom valence shell :  4 f  14.000
  | Found free-ion valence shell :  6 s   0.000
  | Found free-ion valence shell :  5 p   6.000
  | Found free-ion valence shell :  5 d   9.000
  | Found free-ion valence shell :  4 f  14.000
  | Found ionic basis function :  6 p , default cutoff radius.
  | Found hydrogenic basis function :  4 f   7.400
  | Found ionic basis function :  6 s , default cutoff radius.
  | Found hydrogenic basis function :  3 d   2.500
  Species Au                  : Missing cutoff potential type.
  Defaulting to exp(1/x)/(1-x)^2 type cutoff potential.
  Species Au: No 'logarithmic' tag. Using default grid for free atom:
  | Default logarithmic grid data [bohr] : 0.1000E-03 0.1000E+03 0.1012E+01
  | Will include ionic basis functions of  2.0-fold positive Au                   ion.
  Species Au: On-site basis accuracy parameter (for Gram-Schmidt orthonormalisation) not specified.
  Using default value basis_acc =  0.1000000E-03.
  Species Au                  : Using default innermost maximum threshold i_radial=  2 for radial functions.
  Species Au                  : Default cutoff onset for free atom density etc. : 0.35000000E+01 AA.
  Species Au                  : Basic radial grid will be enhanced according to radial_multiplier =   1, to contain    73 grid points.
 
  Finished reading input file 'control.in'. Consistency checks are next.
 
  MPI_IN_PLACE appears to work with this MPI implementation.
  | Keeping use_mpi_in_place .true. (see manual).
  Target number of points in a grid batch is not set. Defaulting to  100
  Method for grid partitioning is not set. Defaulting to parallel hash+maxmin partitioning.
  Batch size limit is not set. Defaulting to    200
  By default, will store active basis functions for each batch.
  If in need of memory, prune_basis_once .false. can be used to disable this option.
  communication_type for Hartree potential was not specified.
  Defaulting to calc_hartree .
  Pulay mixer: Number of initial linear mixing iterations not set.
  Defaulting to    0 iterations.
  Work space size for distributed Hartree potential not set.
  Defaulting to   0.200000E+03 MB.
  Algorithm-dependent basis array size parameters:
  | n_max_pulay                         :       10
  Presetting      1001 iterations before the initial mixing cycle
  is restarted anyway using the sc_init_iter criterion / keyword.
  Presetting a factor      1.000 between actual scf density residual
  and density convergence criterion sc_accuracy_rho below which sc_init_iter
  takes no effect.
  No maximum number of relaxation steps, defaulting to     1000
  Default initial Hessian is Lindh matrix (thres = 15.00) plus  0.200000E+01 eV/A^2 times unity.
  No maximum energy tolerance for TRM/BFGS moves, defaulting to   0.200000E-03
  No harmonic length scale. Defaulting to   0.250000E-01 A.
  No trust radius initializer. Defaulting to   0.200000E+00 A.
  Force calculation: scf convergence accuracy of forces not set.
  Defaulting to 'sc_accuracy_forces not_checked'.
  Handling of forces: Unphysical translation and rotation will be removed from forces.
  No accuracy limit for integral partition fn. given. Defaulting to  0.1000E-14.
  No threshold value for u(r) in integrations given. Defaulting to  0.1000E-05.
  No accuracy for occupation numbers given. Defaulting to  0.1000E-12.
  No threshold value for occupation numbers given. Defaulting to  0.0000E+00.
  No accuracy for fermi level given. Defaulting to  0.1000E-19.
  Maximum # of iterations to find E_F not set. Defaulting to  200.
  Preferred method for the eigenvalue solver ('KS_method') not specified in 'control.in'.
  Calling BLACS routine to test compilation state
  Since ScaLAPACK support is enabled, defaulting to 'elsi'.
  Will not use alltoall communication since running on < 1024 CPUs.
  Threshold for basis singularities not set.
  Default threshold for basis singularities:  0.1000E-04
  partition_type (choice of integration weights) for integrals was not specified.
  | Using a version of the partition function of Stratmann and coworkers ('stratmann_smoother').
  | At each grid point, the set of atoms used to build the partition table is smoothly restricted to
  | only those atoms whose free-atom density would be non-zero at that grid point.
  Partitioning for Hartree potential was not defined. Using partition_type for integrals.
  | Adjusted default value of keyword multip_moments_threshold to:       0.10000000E-11
  | This value may affect high angular momentum components of the Hartree potential in periodic systems.
  No q(lm)/r^(l+1) cutoff set for long-range Hartree potential.
  | Using default value of  0.100000E-09 .
  | Verify using the multipole_threshold keyword.
  Defaulting to new monopole extrapolation.
  Density update method: automatic selection selected.
  Geometry relaxation: A file "geometry.in.next_step" is written out by default after each step.
  | This file contains the geometry of the current relaxation step as well as
  | the current Hessian matrix needed to restart the relaxation algorithm.
  | If you do not want part or all of this information, use the keywords
  | "write_restart_geometry" or "hessian_to_restart_geometry" to switch the output off.
------------------------------------------------------------


------------------------------------------------------------
          Reading geometry description geometry.in.
------------------------------------------------------------
  Found relaxation constraint for atom     22: All coordinates fixed.
  Found relaxation constraint for atom     23: All coordinates fixed.
  Found relaxation constraint for atom     24: All coordinates fixed.
  Found relaxation constraint for atom     25: All coordinates fixed.
  Found relaxation constraint for atom     26: All coordinates fixed.
  Found relaxation constraint for atom     27: All coordinates fixed.
  Found relaxation constraint for atom     28: All coordinates fixed.
  Found relaxation constraint for atom     29: All coordinates fixed.
  Found relaxation constraint for atom     30: All coordinates fixed.
  Found relaxation constraint for atom     31: All coordinates fixed.
  Found relaxation constraint for atom     32: All coordinates fixed.
  Found relaxation constraint for atom     33: All coordinates fixed.
  Found relaxation constraint for atom     34: All coordinates fixed.
  Found relaxation constraint for atom     35: All coordinates fixed.
  Found relaxation constraint for atom     40: All coordinates fixed.
  Found relaxation constraint for atom     41: All coordinates fixed.
  Found relaxation constraint for atom     42: All coordinates fixed.
  Found relaxation constraint for atom     43: All coordinates fixed.
  Found relaxation constraint for atom     44: All coordinates fixed.
  Found relaxation constraint for atom     45: All coordinates fixed.
  Found relaxation constraint for atom     46: All coordinates fixed.
  Found relaxation constraint for atom     47: All coordinates fixed.
  Found relaxation constraint for atom     48: All coordinates fixed.
  Found relaxation constraint for atom     49: All coordinates fixed.
  Found relaxation constraint for atom     50: All coordinates fixed.
  Found relaxation constraint for atom     51: All coordinates fixed.
  Found relaxation constraint for atom     52: All coordinates fixed.
  Found relaxation constraint for atom     53: All coordinates fixed.
  Input structure read successfully.
  The structure contains       53 atoms,  and a total of       2904.000 electrons.

  Input geometry:
  | No unit cell requested.
  | Atomic structure:
  |       Atom                x [A]            y [A]            z [A]
  |    1: Species N            -2.00575656        2.16664840       11.35300740
  |    2: Species C            -2.75752757        3.24745555       11.54870640
  |    3: Species C            -1.81550179        2.03775891        9.98400905
  |    4: Species C            -2.47459616        3.06776240        9.35165954
  |    5: Species N            -3.05928730        3.81755880       10.35479643
  |    6: Species H            -3.08329720        3.62745699       12.51084156
  |    7: Species H            -2.56964396        3.32186105        8.30233549
  |    8: Species C            -1.03436862        0.91460858        9.39043488
  |    9: Species H            -0.02408484        0.89506438        9.83344865
  |   10: Species H            -0.91640803        1.08672285        8.30846321
  |   11: Species C            -1.71700418       -0.44134117        9.60473661
  |   12: Species H            -1.73438183       -0.69216523       10.68030893
  |   13: Species H            -2.75416277       -0.40154139        9.24446715
  |   14: Species N            -1.01450968       -1.49333616        8.82464142
  |   15: Species H            -0.04556633       -1.58579616        9.14733896
  |   16: Species H            -1.45725740       -2.40271641        8.98473998
  |   17: Species H            -3.61320062        4.65946393       10.22612282
  |   18: Species Au           -1.02064292       -1.11638606        6.64657240
  |   19: Species Au           -0.97423850        0.95466583        4.81277337
  |   20: Species Au            0.92443650       -1.28679378        4.70897149
  |   21: Species Au           -1.94892156       -1.79662768        4.22872966
  |   22: Species Au           -0.98364858        2.90868289        2.78397374
  |   23: Species Au            0.89728549        0.72320790        2.74342713
  |   24: Species Au            2.77821955       -1.46226708        2.70288050
  |   25: Species Au           -1.90122553        0.22622760        2.25639062
  |   26: Species Au           -0.02029146       -1.95924740        2.21584399
  |   27: Species Au           -2.81880248       -2.45622772        1.72880748
  |   28: Species Au            0.91757695        2.68245530        0.62758314
  |   29: Species Au            2.79851101        0.49698031        0.58703651
  |   30: Species Au           -1.88093406        2.18547499        0.14054663
  |   31: Species Au            0.00000000        0.00000000        0.10000000
  |   32: Species Au            1.88093406       -2.18547499        0.05945338
  |   33: Species Au           -2.79851101       -0.49698032       -0.38703650
  |   34: Species Au           -0.91757696       -2.68245530       -0.42758313
  |   35: Species Au           -3.78215957        2.41170258        2.29693724
  |   36: Species Au           -1.30508380        0.89656402       12.95583431
  |   37: Species Au           -0.21874061       -0.90661392       14.62817975
  |   38: Species Au            0.16330092        1.97424227       15.02374829
  |   39: Species Au           -2.56397231        0.79586763       15.36690207
  |   40: Species Au            0.80067538       -2.72226339       16.53960063
  |   41: Species Au            1.18422876        0.11978134       16.84213394
  |   42: Species Au            1.56778214        2.96182608       17.14466725
  |   43: Species Au           -1.43900279       -1.02624961       17.19016710
  |   44: Species Au           -1.05544942        1.81579512       17.49270041
  |   45: Species Au           -3.67868099        0.66976417       17.84073358
  |   46: Species Au            2.23967818       -1.69601378       18.81818365
  |   47: Species Au            2.62323157        1.14603095       19.12071695
  |   48: Species Au           -0.38355337       -2.84204474       19.16621680
  |   49: Species Au            0.00000000        0.00000000       19.46875011
  |   50: Species Au            0.38355338        2.84204474       19.77128342
  |   51: Species Au           -2.62323155       -1.14603095       19.81678328
  |   52: Species Au           -2.23967818        1.69601379       20.11931659
  |   53: Species Au           -1.82255617       -3.86829434       16.88763380
  |

  | The smallest distance between any two atoms is         1.01596314 AA.
  |
  | The first atom of this pair is atom number                      5 .
  | The second atom of this pair is atom number                    17 .

  Number of empty states per atom not set in control.in - providing a guess from actual geometry.
  | Total number of empty states used during s.c.f. cycle:      362
  If you use a very high smearing, use empty_states (per atom!) in control.in to increase this value.

  Structure-dependent array size parameters: 
  | Maximum number of distinct radial functions  :       39
  | Maximum number of basis functions            :     2173
  | Number of Kohn-Sham states (occupied + empty):     1814
------------------------------------------------------------

------------------------------------------------------------
          Preparing all fixed parts of the calculation.
------------------------------------------------------------
  Determining machine precision:
    2.225073858507201E-308
  Setting up grids for atomic and cluster calculations.

  Creating wave function, potential, and density for free atoms.

  Species: H

  List of occupied orbitals and eigenvalues:
    n    l              occ      energy [Ha]    energy [eV]
    1    0           1.0000        -0.237593        -6.4652


  Species: C

  List of occupied orbitals and eigenvalues:
    n    l              occ      energy [Ha]    energy [eV]
    1    0           2.0000       -10.046810      -273.3876
    2    0           2.0000        -0.503128       -13.6908
    2    1           2.0000        -0.191849        -5.2205


  Species: N

  List of occupied orbitals and eigenvalues:
    n    l              occ      energy [Ha]    energy [eV]
    1    0           2.0000       -14.143973      -384.8771
    2    0           2.0000        -0.682008       -18.5584
    2    1           3.0000        -0.259605        -7.0642


  Species: O

  List of occupied orbitals and eigenvalues:
    n    l              occ      energy [Ha]    energy [eV]
    1    0           2.0000       -18.926989      -515.0296
    2    0           2.0000        -0.880247       -23.9527
    2    1           4.0000        -0.331514        -9.0210


  Species: Au

  List of occupied orbitals and eigenvalues:
    n    l              occ      energy [Ha]    energy [eV]
    1    0           2.0000     -3256.431199    -88612.0015
    2    0           2.0000      -533.654865    -14521.4877
    3    0           2.0000      -124.232088     -3380.5271
    4    0           2.0000       -26.843821      -730.4575
    5    0           2.0000        -3.974251      -108.1449
    6    0           1.0000        -0.207180        -5.6377
    2    1           6.0000      -460.384091    -12527.6885
    3    1           6.0000      -103.448928     -2814.9886
    4    1           6.0000       -20.075789      -546.2900
    5    1           6.0000        -2.189737       -59.5858
    3    2          10.0000       -81.364825     -2214.0495
    4    2          10.0000       -11.975168      -325.8609
    5    2          10.0000        -0.249072        -6.7776
    4    3          14.0000        -2.985533       -81.2405

  Creating fixed part of basis set: Ionic, confined, hydrogenic.
 
  H                    hydrogenic:
 
  List of hydrogenic basis orbitals: 
    n    l      effective z      eigenvalue [eV]  inner max. [A]     outer max. [A]     outer radius [A]   
    2    0         2.100000       -14.9728           0.193243           1.317208           4.583499
    2    1         3.500000       -41.6669           0.602369           0.602369           3.723403
 
 
  C                    hydrogenic:
 
  List of hydrogenic basis orbitals: 
    n    l      effective z      eigenvalue [eV]  inner max. [A]     outer max. [A]     outer radius [A]   
    2    1         1.700000        -9.7616           1.230570           1.230570           4.607917
    3    2         6.000000       -54.4224           0.792453           0.792453           3.883070
    2    0         4.900000       -81.6679           0.082559           0.562749           3.078220
 
 
  N                    hydrogenic:
 
  List of hydrogenic basis orbitals: 
    n    l      effective z      eigenvalue [eV]  inner max. [A]     outer max. [A]     outer radius [A]   
    2    1         1.800000       -10.9749           1.177451           1.177451           4.573712
    3    2         6.800000       -69.9026           0.704619           0.704619           3.538137
    3    0         5.800000       -50.8545           0.067388           1.191934           4.250239
 
 
  O                    hydrogenic:
 
  List of hydrogenic basis orbitals: 
    n    l      effective z      eigenvalue [eV]  inner max. [A]     outer max. [A]     outer radius [A]   
    2    1         1.800000       -10.9749           1.164242           1.164242           4.578029
    3    2         7.600000       -87.3180           0.624125           0.624125           3.251020
    3    0         6.400000       -61.9207           0.061167           1.081902           4.001998
 
 
  Au                   ion:

  List of free ionic orbitals and eigenvalues:
    n    l      energy [Ha]    energy [eV]
    1    0     -3257.305345    -88635.7882
    2    0      -534.468969    -14543.6406
    3    0      -125.037161     -3402.4343
    4    0       -27.646714      -752.3054
    5    0        -4.773414      -129.8912
    2    1      -461.196653    -12549.7994
    3    1      -104.253556     -2836.8836
    4    1       -20.878488      -568.1326
    5    1        -2.984283       -81.2065
    3    2       -82.168946     -2235.9308
    4    2       -12.777596      -347.6961
    5    2        -1.004504       -27.3340
    4    3        -3.787521      -103.0637


  List of ionic basis orbitals and eigenvalues:
    n    l      energy [Ha]    energy [eV]    outer radius [A]
    6    1        -0.535414       -14.5694       4.560053
    6    0        -0.835538       -22.7361       4.504645

 
  Au                   hydrogenic:
 
  List of hydrogenic basis orbitals: 
    n    l      effective z      eigenvalue [eV]  inner max. [A]     outer max. [A]     outer radius [A]   
    4    3         7.400000       -46.5648           1.145580           1.145580           4.504645
    3    2         2.500000        -9.0892           1.822958           1.822958           4.616141
 

  Adding cutoff potential to free-atom effective potential.
  Creating atomic-like basis functions for current effective potential.

  Species H                   :

  List of atomic basis orbitals and eigenvalues:
    n    l      energy [Ha]    energy [eV]    outer radius [A]
    1    0        -0.237593        -6.4652       4.527807


  Species C                   :

  List of atomic basis orbitals and eigenvalues:
    n    l      energy [Ha]    energy [eV]    outer radius [A]
    1    0       -10.046810      -273.3876       1.934409
    2    0        -0.503128       -13.6908       4.496620
    2    1        -0.191849        -5.2205       4.551928


  Species N                   :

  List of atomic basis orbitals and eigenvalues:
    n    l      energy [Ha]    energy [eV]    outer radius [A]
    1    0       -14.143973      -384.8771       1.637919
    2    0        -0.682008       -18.5584       4.463241
    2    1        -0.259605        -7.0642       4.518138


  Species O                   :

  List of atomic basis orbitals and eigenvalues:
    n    l      energy [Ha]    energy [eV]    outer radius [A]
    1    0       -18.926989      -515.0296       1.415765
    2    0        -0.880247       -23.9527       4.413171
    2    1        -0.331514        -9.0210       4.522403


  Species Au                  :

  List of atomic basis orbitals and eigenvalues:
    n    l      energy [Ha]    energy [eV]    outer radius [A]
    1    0     -3256.431199    -88612.0015       0.120816
    2    0      -533.654865    -14521.4877       0.313506
    3    0      -124.232088     -3380.5271       0.652830
    4    0       -26.843821      -730.4575       1.359424
    5    0        -3.974251      -108.1449       3.318406
    6    0        -0.207180        -5.6377       4.560053
    2    1      -460.384091    -12527.6885       0.329217
    3    1      -103.448928     -2814.9886       0.702515
    4    1       -20.075789      -546.2900       1.536198
    5    1        -2.189737       -59.5858       4.035315
    3    2       -81.364825     -2214.0495       0.755981
    4    2       -11.975168      -325.8609       1.868078
    5    2        -0.249072        -6.7776       4.504645
    4    3        -2.985533       -81.2405       3.198908

  Assembling full basis from fixed parts.
  | Species H :   atomic orbital   1 s accepted.
  | Species H :    hydro orbital   2 s accepted.
  | Species H :    hydro orbital   2 p accepted.
  | Species C :   atomic orbital   1 s accepted.
  | Species C :    hydro orbital   2 s accepted.
  | Species C :   atomic orbital   2 s accepted.
  | Species C :   atomic orbital   2 p accepted.
  | Species C :    hydro orbital   2 p accepted.
  | Species C :    hydro orbital   3 d accepted.
  | Species N :   atomic orbital   1 s accepted.
  | Species N :    hydro orbital   3 s accepted.
  | Species N :   atomic orbital   2 s accepted.
  | Species N :   atomic orbital   2 p accepted.
  | Species N :    hydro orbital   2 p accepted.
  | Species N :    hydro orbital   3 d accepted.
  | Species O :   atomic orbital   1 s accepted.
  | Species O :    hydro orbital   3 s accepted.
  | Species O :   atomic orbital   2 s accepted.
  | Species O :   atomic orbital   2 p accepted.
  | Species O :    hydro orbital   2 p accepted.
  | Species O :    hydro orbital   3 d accepted.
  | Species Au :   atomic orbital   1 s accepted.
  | Species Au :   atomic orbital   2 s accepted.
  | Species Au :   atomic orbital   3 s accepted.
  | Species Au :   atomic orbital   4 s accepted.
  | Species Au :   atomic orbital   5 s accepted.
  | Species Au :    ionic orbital   6 s accepted.
  | Species Au :   atomic orbital   6 s accepted.
  | Species Au :   atomic orbital   2 p accepted.
  | Species Au :   atomic orbital   3 p accepted.
  | Species Au :   atomic orbital   4 p accepted.
  | Species Au :   atomic orbital   5 p accepted.
  | Species Au :    ionic orbital   6 p accepted.
  | Species Au :   atomic orbital   3 d accepted.
  | Species Au :   atomic orbital   4 d accepted.
  | Species Au :   atomic orbital   5 d accepted.
  | Species Au :    hydro orbital   3 d accepted.
  | Species Au :   atomic orbital   4 f accepted.
  | Species Au :    hydro orbital   4 f accepted.
 
  Basis size parameters after reduction:
  | Total number of radial functions:       39
  | Total number of basis functions :     2173
 
  Per-task memory consumption for arrays in subroutine allocate_ext:
  |          14.911264MB.
  Testing on-site integration grid accuracy.
  |  Species  Function  <phi|h_atom|phi> (log., in eV)  <phi|h_atom|phi> (rad., in eV)
           1        1                 -6.4664147733                 -6.4652229287
           1        2                 13.7099062243                 13.7158503352
           1        3                 25.2661739479                 25.2663166526
           2        4               -273.3876219315               -273.3875919975
           2        5                -10.7204647108                -10.7200987593
           2        6                 17.5782951179                 17.5752355749
           2        7                 -5.2222267968                 -5.2237454457
           2        8                  8.6866956299                  8.6634852752
           2        9                 27.4984676176                 27.4985577282
           3       10               -384.8770852102               -384.8770238661
           3       11                 12.5754985571                 12.5755902269
           3       12                -15.7673946340                -15.7673131149
           3       13                 -7.0647024644                 -7.0651952861
           3       14                  8.8117910311                  8.7928686445
           3       15                 35.9641313273                 35.9643080892
           4       16               -515.0295626295               -515.0294562738
           4       17                 15.1698434419                 15.1699322204
           4       18                -21.6038822678                -21.6039118105
           4       19                 -9.0211123393                 -9.0212703513
           4       20                  8.3047696391                  8.2854840999
           4       21                 45.8428042125                 45.8427461222
           5       22             -88612.0014632773             -88611.6712034181 ***
           5       23             -14521.4877183143             -14521.4814000019
           5       24              -3380.5271185031              -3380.5267747562
           5       25               -730.4575387838               -730.4575126191
           5       26               -108.1448599552               -108.1448564322
           5       27                 -5.0942970293                 -5.0944290534
           5       28                  6.1115134680                  6.0788143741 ***
           5       29             -12527.6885190594             -12527.6885173588
           5       30              -2814.9885638790              -2814.9885483085
           5       31               -546.2900141438               -546.2900083823
           5       32                -59.5857773586                -59.5857755984
           5       33                  0.8801786283                  0.8779179064
           5       34              -2214.0495316651              -2214.0495265841
           5       35               -325.8609015442               -325.8608990421
           5       36                 -6.7779523966                 -6.7780549585
           5       37                  6.8774732661                  6.8534371039
           5       38                -81.2404736873                -81.2404731624
           5       39                 21.6950885227                 21.6950713512
 * Note: Onsite integrals marked "***" above are less accurate than
 * onsite_accuracy_threshold =    0.03000 eV. Usually, this is harmless.
 * However, one integral did have a negative value. This integral could be important.
 * When in doubt, tighten the "radial" and/or "radial_multiplier" flags to check.

  Preparing densities etc. for the partition functions (integrals / Hartree potential).

  Preparations completed.
  max(cpu_time)          :      0.385 s.
  Wall clock time (cpu1) :      0.387 s.
------------------------------------------------------------

------------------------------------------------------------
          Begin self-consistency loop: Initialization.

          Date     :  20221012, Time     :  121342.172
------------------------------------------------------------

  Initializing index lists of integration centers etc. from given atomic structure:
  | Number of centers in hartree potential         :        53
  | Number of centers in hartree multipole         :        53
  | Number of centers in electron density summation:        53
  | Number of centers in basis integrals           :        53
  | Number of centers in integrals                 :        53
  | Number of centers in hamiltonian               :        53
  Initializing relaxation algorithms.
  * Using 16 tasks for Scalapack Eigenvalue solver.
  Detailed listing of tasks and assigned k-points:
  (for non-periodic systems, the "k-point" denotes an internal label only)
   Task     0 k-point     1 on scc-gk1
   Task     1 k-point     1 on scc-gk1
   Task     2 k-point     1 on scc-gk1
   Task     3 k-point     1 on scc-gk1
   Task     4 k-point     1 on scc-gk1
   Task     5 k-point     1 on scc-gk1
   Task     6 k-point     1 on scc-gk1
   Task     7 k-point     1 on scc-gk1
   Task     8 k-point     1 on scc-gk1
   Task     9 k-point     1 on scc-gk1
   Task    10 k-point     1 on scc-gk1
   Task    11 k-point     1 on scc-gk1
   Task    12 k-point     1 on scc-gk1
   Task    13 k-point     1 on scc-gk1
   Task    14 k-point     1 on scc-gk1
   Task    15 k-point     1 on scc-gk1
  Tasks:    16 split into      4 X      4 BLACS grid
  Calculating block size based on n_basis =         2173  max_nprow =            4  max_npcol =            4
  ScaLAPACK block size set to:           16
  Allocating        2.367 MB for ovlp
  Allocating        2.367 MB for ham
  Allocating        2.367 MB for eigenvec
  Required Scalapack workspace - INTEGER:            1  REAL:             1
  Partitioning the integration grid into batches with parallel hashing+maxmin method.
  | Number of batches:     3542
  | Maximal batch size:     200
  | Minimal batch size:      50
  | Average batch size:     118.228
  | Standard deviation of batch sizes:      36.396

  Integration load balanced across    16 MPI tasks.
  Work distribution over tasks is as follows:
  Task     0 has      26161 integration points.
  Task     1 has      26161 integration points.
  Task     2 has      26256 integration points.
  Task     3 has      26123 integration points.
  Task     4 has      26128 integration points.
  Task     5 has      26246 integration points.
  Task     6 has      26113 integration points.
  Task     7 has      26135 integration points.
  Task     8 has      26154 integration points.
  Task     9 has      26268 integration points.
  Task    10 has      26143 integration points.
  Task    11 has      26143 integration points.
  Task    12 has      26276 integration points.
  Task    13 has      26133 integration points.
  Task    14 has      26154 integration points.
  Task    15 has      26168 integration points.
  Initializing partition tables, free-atom densities, potentials, etc. across the integration grid (initialize_grid_storage).
  | initialize_grid_storage: Actual outermost partition radius vs. multipole_radius_free
  | (-- VB: in principle, multipole_radius_free should be larger, hence this output)
  | Species        1: Confinement radius =              4.999999999999999 AA, multipole_radius_free =              5.054417573612229 AA.
  | Species        1: outer_partition_radius set to              5.054417573612229 AA .
  | Species        2: Confinement radius =              4.999999999999999 AA, multipole_radius_free =              5.019602836301480 AA.
  | Species        2: outer_partition_radius set to              5.019602836301480 AA .
  | Species        3: Confinement radius =              4.999999999999999 AA, multipole_radius_free =              5.043624274424571 AA.
  | Species        3: outer_partition_radius set to              5.043624274424571 AA .
  | Species        4: Confinement radius =              4.999999999999999 AA, multipole_radius_free =              5.048384829883283 AA.
  | Species        4: outer_partition_radius set to              5.048384829883283 AA .
  | Species        5: Confinement radius =              4.999999999999999 AA, multipole_radius_free =              5.028561921230412 AA.
  | Species        5: outer_partition_radius set to              5.028561921230412 AA .
  | Original list of interatomic distances with          53 x         53 entries is created.
  | Net number of integration points:   418762
  | of which are non-zero points    :   382983
  Renormalizing the initial density to the exact electron count on the 3D integration grid.
  | Initial density: Formal number of electrons (from input files) :    2904.0000000000
  | Integrated number of electrons on 3D grid     :    2904.0001668036
  | Charge integration error                      :       0.0001668036
  | Normalization factor for density and gradient :       0.9999999426
  Obtaining max. number of non-zero basis functions in each batch (get_n_compute_maxes).
  | Maximal number of non-zero basis functions:      581 in task     0
  | Maximal number of non-zero basis functions:      577 in task     1
  | Maximal number of non-zero basis functions:      593 in task     2
  | Maximal number of non-zero basis functions:      595 in task     3
  | Maximal number of non-zero basis functions:      583 in task     4
  | Maximal number of non-zero basis functions:      610 in task     5
  | Maximal number of non-zero basis functions:      590 in task     6
  | Maximal number of non-zero basis functions:      582 in task     7
  | Maximal number of non-zero basis functions:      579 in task     8
  | Maximal number of non-zero basis functions:      611 in task     9
  | Maximal number of non-zero basis functions:      584 in task    10
  | Maximal number of non-zero basis functions:      582 in task    11
  | Maximal number of non-zero basis functions:      584 in task    12
  | Maximal number of non-zero basis functions:      568 in task    13
  | Maximal number of non-zero basis functions:      597 in task    14
  | Maximal number of non-zero basis functions:      588 in task    15
  Selecting the method for density update.
  Density matrix based charge density update selected.
  Scalapack and density-matrix based density update requested:
  Switching to packed matrix format "index" by default.
  Hamiltonian matrix size:
  | Size of matrix non-packed:               2362051
  | Size of matrix packed:          867095
  Allocating       31.535 MB for KS_eigenvector
  Integrating Hamiltonian matrix: batch-based integration.
  Time summed over all CPUs for integration: real work        7.716 s, elapsed        8.126 s
  Integrating overlap matrix.
  Time summed over all CPUs for integration: real work        4.270 s, elapsed        4.456 s
  Decreasing sparse matrix size:
   Tolerance:  9.999999824516700E-014
   Hamiltonian matrix
  | Array has   800472 nonzero elements out of   867095 elements
  | Sparsity factor is 0.077
   Overlap matrix
  | Array has   764444 nonzero elements out of   867095 elements
  | Sparsity factor is 0.118
  New size of hamiltonian matrix:      800513
  Deallocating overlap matrix.

  Updating Kohn-Sham eigenvalues and eigenvectors using ELSI and the ELPA eigensolver.
  ELPA settings:
  | ELPA solver          2
  | Time full => band           :     0.121 s
  | Time band => tridiagonal    :     0.043 s
  | Time solve tridiagonal      :     0.030 s
  Overlap matrix is nonsingular
  | Lowest eigenvalue of overlap  :  0.16E-02
  | Highest eigenvalue of overlap :  0.66E+01
  Finished singularity check of overlap matrix
  | Time :     0.196 s
  Finished Cholesky decomposition
  | Time :     0.060 s
  Finished transformation to standard eigenproblem
  | Time :     0.062 s
  Starting ELPA eigensolver
  | Time full => band           :     0.116 s
  | Time band => tridiagonal    :     0.040 s
  | Time solve tridiagonal      :     0.027 s
  | Time ev tridiagonal => band :     0.146 s
  | Time ev band => full        :     0.060 s
  Finished solving standard eigenproblem
  | Time :     0.388 s
  Finished back-transformation of eigenvectors
  | Time :     0.039 s

  Obtaining occupation numbers and chemical potential using ELSI.
  | Chemical potential (Fermi level):    -4.55912774eV
  Writing Kohn-Sham eigenvalues.

  State    Occupation    Eigenvalue [Ha]    Eigenvalue [eV]
      1       2.00000       -3256.415427       -88611.57228
      2       2.00000       -3256.415401       -88611.57157
      3       2.00000       -3256.415269       -88611.56798
      4       2.00000       -3256.415227       -88611.56683
      5       2.00000       -3256.415097       -88611.56330
      6       2.00000       -3256.415082       -88611.56289
      7       2.00000       -3256.414812       -88611.55553
      8       2.00000       -3256.414748       -88611.55379
      9       2.00000       -3256.414748       -88611.55379
     10       2.00000       -3256.414698       -88611.55243
     11       2.00000       -3256.414519       -88611.54758
     12       2.00000       -3256.414447       -88611.54560
     13       2.00000       -3256.414440       -88611.54542
     14       2.00000       -3256.414351       -88611.54299
     15       2.00000       -3256.414134       -88611.53710
     16       2.00000       -3256.414001       -88611.53348
     17       2.00000       -3256.413638       -88611.52359
     18       2.00000       -3256.413615       -88611.52297
     19       2.00000       -3256.413510       -88611.52012
     20       2.00000       -3256.413498       -88611.51978
     21       2.00000       -3256.413498       -88611.51978
     22       2.00000       -3256.413471       -88611.51906
     23       2.00000       -3256.413468       -88611.51898
     24       2.00000       -3256.413441       -88611.51824
     25       2.00000       -3256.413081       -88611.50845
     26       2.00000       -3256.413081       -88611.50845
     27       2.00000       -3256.413081       -88611.50845
     28       2.00000       -3256.413081       -88611.50845
     29       2.00000       -3256.413081       -88611.50845
     30       2.00000       -3256.413081       -88611.50845
     31       2.00000       -3256.413081       -88611.50845
     32       2.00000       -3256.413081       -88611.50845
     33       2.00000       -3256.413081       -88611.50845
     34       2.00000       -3256.413081       -88611.50845
     35       2.00000       -3256.412248       -88611.48578
     36       2.00000       -3256.412248       -88611.48578
     37       2.00000        -533.656720       -14521.53821
     38       2.00000        -533.656694       -14521.53750
     39       2.00000        -533.656561       -14521.53387
     40       2.00000        -533.656519       -14521.53273
     41       2.00000        -533.656389       -14521.52918
     42       2.00000        -533.656374       -14521.52877
     43       2.00000        -533.656100       -14521.52134
     44       2.00000        -533.656038       -14521.51965
     45       2.00000        -533.656038       -14521.51965
     46       2.00000        -533.655986       -14521.51822
     47       2.00000        -533.655808       -14521.51337
     48       2.00000        -533.655735       -14521.51139
     49       2.00000        -533.655728       -14521.51121
     50       2.00000        -533.655639       -14521.50878
     51       2.00000        -533.655422       -14521.50287
     52       2.00000        -533.655288       -14521.49923
     53       2.00000        -533.654924       -14521.48932
     54       2.00000        -533.654901       -14521.48870
     55       2.00000        -533.654795       -14521.48583
     56       2.00000        -533.654783       -14521.48550
     57       2.00000        -533.654783       -14521.48550
     58       2.00000        -533.654756       -14521.48476
     59       2.00000        -533.654753       -14521.48468
     60       2.00000        -533.654726       -14521.48394
     61       2.00000        -533.654365       -14521.47412
     62       2.00000        -533.654365       -14521.47412
     63       2.00000        -533.654365       -14521.47412
     64       2.00000        -533.654365       -14521.47412
     65       2.00000        -533.654365       -14521.47412
     66       2.00000        -533.654365       -14521.47412
     67       2.00000        -533.654365       -14521.47412
     68       2.00000        -533.654365       -14521.47412
     69       2.00000        -533.654365       -14521.47412
     70       2.00000        -533.654365       -14521.47412
     71       2.00000        -533.653528       -14521.45135
     72       2.00000        -533.653528       -14521.45135
     73       2.00000        -460.388509       -12527.80873
     74       2.00000        -460.388508       -12527.80870
     75       2.00000        -460.388505       -12527.80863
     76       2.00000        -460.388483       -12527.80802
     77       2.00000        -460.388481       -12527.80799
     78       2.00000        -460.388479       -12527.80792
     79       2.00000        -460.388350       -12527.80441
     80       2.00000        -460.388349       -12527.80439
     81       2.00000        -460.388345       -12527.80428
     82       2.00000        -460.388308       -12527.80326
     83       2.00000        -460.388307       -12527.80324
     84       2.00000        -460.388303       -12527.80314
     85       2.00000        -460.388177       -12527.79971
     86       2.00000        -460.388177       -12527.79970
     87       2.00000        -460.388173       -12527.79960
     88       2.00000        -460.388162       -12527.79930
     89       2.00000        -460.388162       -12527.79929
     90       2.00000        -460.388158       -12527.79919
     91       2.00000        -460.387894       -12527.79201
     92       2.00000        -460.387885       -12527.79176
     93       2.00000        -460.387884       -12527.79173
     94       2.00000        -460.387827       -12527.79017
     95       2.00000        -460.387827       -12527.79017
     96       2.00000        -460.387827       -12527.79017
     97       2.00000        -460.387827       -12527.79017
     98       2.00000        -460.387823       -12527.79008
     99       2.00000        -460.387823       -12527.79008
    100       2.00000        -460.387780       -12527.78890
    101       2.00000        -460.387770       -12527.78864
    102       2.00000        -460.387770       -12527.78863
    103       2.00000        -460.387600       -12527.78400
    104       2.00000        -460.387594       -12527.78384
    105       2.00000        -460.387592       -12527.78378
    106       2.00000        -460.387526       -12527.78200
    107       2.00000        -460.387522       -12527.78187
    108       2.00000        -460.387520       -12527.78182
    109       2.00000        -460.387519       -12527.78181
    110       2.00000        -460.387515       -12527.78169
    111       2.00000        -460.387513       -12527.78163
    112       2.00000        -460.387431       -12527.77939
    113       2.00000        -460.387425       -12527.77925
    114       2.00000        -460.387423       -12527.77919
    115       2.00000        -460.387213       -12527.77347
    116       2.00000        -460.387209       -12527.77335
    117       2.00000        -460.387206       -12527.77329
    118       2.00000        -460.387079       -12527.76983
    119       2.00000        -460.387075       -12527.76973
    120       2.00000        -460.387073       -12527.76967
    121       2.00000        -460.386712       -12527.75984
    122       2.00000        -460.386711       -12527.75982
    123       2.00000        -460.386711       -12527.75982
    124       2.00000        -460.386689       -12527.75922
    125       2.00000        -460.386689       -12527.75921
    126       2.00000        -460.386689       -12527.75921
    127       2.00000        -460.386585       -12527.75639
    128       2.00000        -460.386584       -12527.75635
    129       2.00000        -460.386581       -12527.75629
    130       2.00000        -460.386571       -12527.75601
    131       2.00000        -460.386571       -12527.75601
    132       2.00000        -460.386571       -12527.75601
    133       2.00000        -460.386571       -12527.75601
    134       2.00000        -460.386571       -12527.75601
    135       2.00000        -460.386571       -12527.75601
    136       2.00000        -460.386546       -12527.75532
    137       2.00000        -460.386544       -12527.75528
    138       2.00000        -460.386543       -12527.75524
    139       2.00000        -460.386542       -12527.75522
    140       2.00000        -460.386542       -12527.75520
    141       2.00000        -460.386539       -12527.75514
    142       2.00000        -460.386516       -12527.75450
    143       2.00000        -460.386515       -12527.75446
    144       2.00000        -460.386512       -12527.75441
    145       2.00000        -460.386154       -12527.74466
    146       2.00000        -460.386154       -12527.74466
    147       2.00000        -460.386154       -12527.74466
    148       2.00000        -460.386154       -12527.74466
    149       2.00000        -460.386154       -12527.74466
    150       2.00000        -460.386154       -12527.74466
    151       2.00000        -460.386154       -12527.74466
    152       2.00000        -460.386154       -12527.74466
    153       2.00000        -460.386154       -12527.74466
    154       2.00000        -460.386154       -12527.74466
    155       2.00000        -460.386154       -12527.74466
    156       2.00000        -460.386154       -12527.74466
    157       2.00000        -460.386154       -12527.74466
    158       2.00000        -460.386154       -12527.74466
    159       2.00000        -460.386154       -12527.74466
    160       2.00000        -460.386154       -12527.74466
    161       2.00000        -460.386154       -12527.74466
    162       2.00000        -460.386154       -12527.74466
    163       2.00000        -460.386154       -12527.74466
    164       2.00000        -460.386154       -12527.74466
    165       2.00000        -460.386152       -12527.74460
    166       2.00000        -460.386152       -12527.74460
    167       2.00000        -460.386152       -12527.74460
    168       2.00000        -460.386152       -12527.74460
    169       2.00000        -460.386152       -12527.74460
    170       2.00000        -460.386152       -12527.74460
    171       2.00000        -460.386152       -12527.74460
    172       2.00000        -460.386152       -12527.74460
    173       2.00000        -460.386152       -12527.74460
    174       2.00000        -460.386152       -12527.74460
    175       2.00000        -460.385319       -12527.72195
    176       2.00000        -460.385319       -12527.72195
    177       2.00000        -460.385316       -12527.72186
    178       2.00000        -460.385316       -12527.72186
    179       2.00000        -460.385316       -12527.72186
    180       2.00000        -460.385316       -12527.72186
    181       2.00000        -124.236064        -3380.63530
    182       2.00000        -124.236037        -3380.63457
    183       2.00000        -124.235899        -3380.63081
    184       2.00000        -124.235856        -3380.62965
    185       2.00000        -124.235724        -3380.62604
    186       2.00000        -124.235708        -3380.62562
    187       2.00000        -124.235418        -3380.61772
    188       2.00000        -124.235367        -3380.61634
    189       2.00000        -124.235367        -3380.61634
    190       2.00000        -124.235301        -3380.61455
    191       2.00000        -124.235124        -3380.60973
    192       2.00000        -124.235050        -3380.60772
    193       2.00000        -124.235044        -3380.60754
    194       2.00000        -124.234952        -3380.60505
    195       2.00000        -124.234731        -3380.59904
    196       2.00000        -124.234596        -3380.59536
    197       2.00000        -124.234225        -3380.58527
    198       2.00000        -124.234202        -3380.58464
    199       2.00000        -124.234092        -3380.58165
    200       2.00000        -124.234083        -3380.58139
    201       2.00000        -124.234083        -3380.58139
    202       2.00000        -124.234052        -3380.58056
    203       2.00000        -124.234049        -3380.58048
    204       2.00000        -124.234022        -3380.57973
    205       2.00000        -124.233654        -3380.56974
    206       2.00000        -124.233654        -3380.56974
    207       2.00000        -124.233654        -3380.56974
    208       2.00000        -124.233654        -3380.56974
    209       2.00000        -124.233654        -3380.56974
    210       2.00000        -124.233654        -3380.56974
    211       2.00000        -124.233654        -3380.56974
    212       2.00000        -124.233654        -3380.56974
    213       2.00000        -124.233654        -3380.56974
    214       2.00000        -124.233654        -3380.56974
    215       2.00000        -124.232798        -3380.54644
    216       2.00000        -124.232798        -3380.54644
    217       2.00000        -103.453494        -2815.11281
    218       2.00000        -103.453486        -2815.11260
    219       2.00000        -103.453469        -2815.11211
    220       2.00000        -103.453465        -2815.11200
    221       2.00000        -103.453458        -2815.11183
    222       2.00000        -103.453438        -2815.11129
    223       2.00000        -103.453331        -2815.10838
    224       2.00000        -103.453325        -2815.10821
    225       2.00000        -103.453294        -2815.10735
    226       2.00000        -103.453288        -2815.10719
    227       2.00000        -103.453283        -2815.10705
    228       2.00000        -103.453251        -2815.10620
    229       2.00000        -103.453154        -2815.10356
    230       2.00000        -103.453150        -2815.10344
    231       2.00000        -103.453138        -2815.10312
    232       2.00000        -103.453135        -2815.10303
    233       2.00000        -103.453120        -2815.10263
    234       2.00000        -103.453105        -2815.10222
    235       2.00000        -103.452887        -2815.09630
    236       2.00000        -103.452813        -2815.09428
    237       2.00000        -103.452805        -2815.09404
    238       2.00000        -103.452793        -2815.09374
    239       2.00000        -103.452793        -2815.09374
    240       2.00000        -103.452793        -2815.09374
[...]
  | Density mixing                             :        0.008 s           0.008 s
  | Hartree multipole update                   :        0.008 s           0.009 s
  | Hartree multipole summation                :        1.324 s           1.327 s
  | Integration                                :        0.516 s           0.518 s
  | Solution of K.-S. eqns.                    :        0.570 s           0.571 s
  | Total energy evaluation                    :        0.002 s           0.003 s

  Partial memory accounting:
  | Current value for overall tracked memory usage on task 0  :          48.246 MB
  | Peak value for overall tracked memory usage on task 0     :          70.202 MB after allocating wave_pulay
  | Largest tracked array allocation on task 0 so far         :          31.535 MB  when allocating +KS_eigenvector
  Note:  These values currently only include a subset of arrays which are explicitly tracked.
  The "true" memory usage will be greater.
------------------------------------------------------------
  |------------------------------------------
  | Final ELSI Output
  |------------------------------------------
  | Number of basis functions :         2173
  | Number of electrons       :       2904.0
  | Number of spins           :            1
  | Number of k-points        :            1
  | Number of states          :         1814
  | Solver                    :         ELPA
  | Parallel mode             :   MULTI_PROC
  | Matrix format             :  BLACS_DENSE
  | Matrix sparsity           :        0.661
  |------------------------------------------
  | ELSI Project (c)  elsi-interchange.org
  |------------------------------------------

  Energy and forces in a compact form:
  | Total energy uncorrected      :         -0.192932639432470E+08 eV
  | Total energy corrected        :         -0.192932639432470E+08 eV  <-- do not rely on this value for anything but (periodic) metals
  | Electronic free energy        :         -0.192932639432470E+08 eV
  Total atomic forces (unitary forces were cleaned, then relaxation constraints were applied) [eV/Ang]:
  |   1          0.167119587616525E-02          0.239145603770843E-03          0.409232959880150E-02
  |   2         -0.150075306966155E-02          0.698507290930066E-02         -0.453121919975159E-02
  |   3          0.104457967155589E-02          0.165681511833886E-02         -0.632382715684435E-02
  |   4          0.228416111381403E-02         -0.239940739936904E-04         -0.220700547896645E-02
  |   5          0.105276348936597E-02          0.314154746206071E-02         -0.144841384769385E-02
  |   6         -0.161569717785736E-03          0.584083708268763E-02         -0.380448365891950E-02
  |   7          0.967993941528610E-03          0.108178455798091E-02         -0.271764376113269E-02
  |   8         -0.161477943810606E-02          0.207768509312704E-02         -0.165750310704922E-02
  |   9          0.513960800299654E-03          0.206670138568532E-02         -0.291775806097380E-02
  |  10         -0.199674297033126E-02          0.599565930997986E-03         -0.112666865063684E-02
  |  11          0.734290822776066E-03          0.440543896444501E-02          0.243870832301785E-02
  |  12          0.203828579410486E-02          0.209097291825147E-02          0.838220902088725E-03
  |  13         -0.440790300237966E-03          0.139567221254369E-02          0.302918309231264E-02
  |  14          0.751567186675054E-03          0.117313947090627E-02         -0.234918360180059E-02
  |  15          0.442388644633585E-03          0.100896864607455E-02          0.456972184653475E-02
  |  16          0.706801955591418E-03          0.621582335257777E-03          0.523712303959508E-02
  |  17          0.137272523383846E-02          0.294807661186052E-02         -0.485680311175080E-02
  |  18          0.145591049550134E-02         -0.177025083027748E-02          0.637491936786724E-02
  |  19          0.727707761728163E-03         -0.440308472743587E-03         -0.108997532886586E-02
  |  20          0.211183974871116E-02         -0.147894811375122E-02         -0.154957556998904E-02
  |  21         -0.356129916542541E-03         -0.200410462714246E-02         -0.672504470048387E-02
  |  22          0.000000000000000E+00          0.000000000000000E+00          0.000000000000000E+00
  |  23          0.000000000000000E+00          0.000000000000000E+00          0.000000000000000E+00
  |  24          0.000000000000000E+00          0.000000000000000E+00          0.000000000000000E+00
  |  25          0.000000000000000E+00          0.000000000000000E+00          0.000000000000000E+00
  |  26          0.000000000000000E+00          0.000000000000000E+00          0.000000000000000E+00
  |  27          0.000000000000000E+00          0.000000000000000E+00          0.000000000000000E+00
  |  28          0.000000000000000E+00          0.000000000000000E+00          0.000000000000000E+00
  |  29          0.000000000000000E+00          0.000000000000000E+00          0.000000000000000E+00
  |  30          0.000000000000000E+00          0.000000000000000E+00          0.000000000000000E+00
  |  31          0.000000000000000E+00          0.000000000000000E+00          0.000000000000000E+00
  |  32          0.000000000000000E+00          0.000000000000000E+00          0.000000000000000E+00
  |  33          0.000000000000000E+00          0.000000000000000E+00          0.000000000000000E+00
  |  34          0.000000000000000E+00          0.000000000000000E+00          0.000000000000000E+00
  |  35          0.000000000000000E+00          0.000000000000000E+00          0.000000000000000E+00
  |  36          0.136507223118989E-02          0.296656595076509E-02          0.422745807618813E-02
  |  37         -0.380101579453672E-02          0.705656823557193E-02         -0.409129245568367E-02
  |  38         -0.216802535956590E-02         -0.103326708575036E-03         -0.279878794238183E-02
  |  39          0.225474688923648E-03          0.490268127956988E-03          0.223880404262624E-02
  |  40          0.000000000000000E+00          0.000000000000000E+00          0.000000000000000E+00
  |  41          0.000000000000000E+00          0.000000000000000E+00          0.000000000000000E+00
  |  42          0.000000000000000E+00          0.000000000000000E+00          0.000000000000000E+00
  |  43          0.000000000000000E+00          0.000000000000000E+00          0.000000000000000E+00
  |  44          0.000000000000000E+00          0.000000000000000E+00          0.000000000000000E+00
  |  45          0.000000000000000E+00          0.000000000000000E+00          0.000000000000000E+00
  |  46          0.000000000000000E+00          0.000000000000000E+00          0.000000000000000E+00
  |  47          0.000000000000000E+00          0.000000000000000E+00          0.000000000000000E+00
  |  48          0.000000000000000E+00          0.000000000000000E+00          0.000000000000000E+00
  |  49          0.000000000000000E+00          0.000000000000000E+00          0.000000000000000E+00
  |  50          0.000000000000000E+00          0.000000000000000E+00          0.000000000000000E+00
  |  51          0.000000000000000E+00          0.000000000000000E+00          0.000000000000000E+00
  |  52          0.000000000000000E+00          0.000000000000000E+00          0.000000000000000E+00
  |  53          0.000000000000000E+00          0.000000000000000E+00          0.000000000000000E+00

  ------------------------------------ 
  Start decomposition of the XC Energy 
  ------------------------------------ 
  X and C from original XC functional choice 
  Hartree-Fock Energy :          0.000000000 Ha              0.000000000 eV
  X Energy            :     -13119.209508070 Ha        -356991.854260137 eV
  C Energy            :       -176.441215863 Ha          -4801.209766500 eV
  Total XC Energy     :     -13295.650723933 Ha        -361793.064026636 eV
  ------------------------------------ 
  LDA X and C from self-consistent density 
  X Energy LDA        :     -12590.186845831 Ha        -342596.415188744 eV
  C Energy LDA        :       -301.765473465 Ha          -8211.456327283 eV
  ------------------------------------ 
  End decomposition of the XC Energy 
  ------------------------------------ 

------------------------------------------------------------
  Relaxation / MD: End force evaluation.       :  max(cpu_time)    wall_clock(cpu1)
  | Time for this force evaluation             :       32.603 s          32.990 s

------------------------------------------------------------
  Geometry optimization: Attempting to predict improved coordinates.

  Net remaining forces (excluding translations, rotations) in present geometry:
  Maximum force component is  0.705657E-02 eV/A.
  Present geometry is converged.

------------------------------------------------------------
  Final atomic structure:
                         x [A]             y [A]             z [A]
            atom        -2.00509098        2.18008819       11.33722258  N
            atom        -2.75521865        3.26141606       11.53343795  C
            atom        -1.81542406        2.04884939        9.96930718  C
            atom        -2.47354008        3.07883129        9.33576980  C
            atom        -3.05673135        3.83044370       10.33881800  N
            atom        -3.07974056        3.64148718       12.49595560  H
            atom        -2.56906839        3.33211709        8.28632672  H
            atom        -1.03476077        0.92032427        9.38596869  C
            atom        -0.02383509        0.90711351        9.82805498  H
            atom        -0.91849285        1.07831604        8.30166968  H
            atom        -1.71624429       -0.43308804        9.62131714  C
            atom        -1.73573397       -0.66581461       10.70131821  H
            atom        -2.75256113       -0.40076106        9.25786555  H
            atom        -1.01073593       -1.49623339        8.86094412  N
            atom        -0.04250382       -1.58411544        9.18678653  H
            atom        -1.45428518       -2.40354850        9.02978052  H
            atom        -3.60975978        4.67286435       10.20991801  H
            atom        -1.01893920       -1.13198172        6.63635709  Au
            atom        -0.97551960        0.95159966        4.81186062  Au
            atom         0.92740070       -1.28810223        4.70687483  Au
            atom        -1.95195525       -1.79931899        4.22469488  Au
            atom        -0.98364858        2.90868289        2.78397374  Au
            atom         0.89728549        0.72320790        2.74342713  Au
            atom         2.77821955       -1.46226708        2.70288050  Au
            atom        -1.90122553        0.22622760        2.25639062  Au
            atom        -0.02029146       -1.95924740        2.21584399  Au
            atom        -2.81880248       -2.45622772        1.72880748  Au
            atom         0.91757695        2.68245530        0.62758314  Au
            atom         2.79851101        0.49698031        0.58703651  Au
            atom        -1.88093406        2.18547499        0.14054663  Au
            atom         0.00000000        0.00000000        0.10000000  Au
            atom         1.88093406       -2.18547499        0.05945338  Au
            atom        -2.79851101       -0.49698032       -0.38703650  Au
            atom        -0.91757696       -2.68245530       -0.42758313  Au
            atom        -3.78215957        2.41170258        2.29693724  Au
            atom        -1.30080299        0.89461742       12.96956363  Au
            atom        -0.21553037       -0.91269705       14.63039619  Au
            atom         0.16850063        1.97473406       15.02692648  Au
            atom        -2.56626363        0.79366332       15.37111028  Au
            atom         0.80067538       -2.72226339       16.53960063  Au
            atom         1.18422876        0.11978134       16.84213394  Au
            atom         1.56778214        2.96182608       17.14466725  Au
            atom        -1.43900279       -1.02624961       17.19016710  Au
            atom        -1.05544942        1.81579512       17.49270041  Au
            atom        -3.67868099        0.66976417       17.84073358  Au
            atom         2.23967818       -1.69601378       18.81818365  Au
            atom         2.62323157        1.14603095       19.12071695  Au
            atom        -0.38355337       -2.84204474       19.16621680  Au
            atom         0.00000000        0.00000000       19.46875011  Au
            atom         0.38355338        2.84204474       19.77128342  Au
            atom        -2.62323155       -1.14603095       19.81678328  Au
            atom        -2.23967818        1.69601379       20.11931659  Au
            atom        -1.82255617       -3.86829434       16.88763380  Au
------------------------------------------------------------

------------------------------------------------------------------------------
  Final output of selected total energy values:

  The following output summarizes some interesting total energy values
  at the end of a run (AFTER all relaxation, molecular dynamics, etc.).

  | Total energy of the DFT / Hartree-Fock s.c.f. calculation      :      -19293263.943246964 eV
  | Final zero-broadening corrected energy (caution - metals only) :      -19293263.943246964 eV
  | For reference only, the value of 1 Hartree used in FHI-aims is :             27.211384500 eV

  Before relying on these values, please be sure to understand exactly which
  total energy value is referred to by a given number. Different objects may
  all carry the same name 'total energy'. Definitions:

  Total energy of the DFT / Hartree-Fock s.c.f. calculation:
  | Note that this energy does not include ANY quantities calculated after the
  | s.c.f. cycle, in particular not ANY RPA, MP2, etc. many-body perturbation terms.

  Final zero-broadening corrected energy:
  | For metallic systems only, a broadening of the occupation numbers at the Fermi
  | level can be extrapolated back to zero broadening by an electron-gas inspired
  | formula. For all systems that are not real metals, this value can be
  | meaningless and should be avoided.

------------------------------------------------------------------------------
  Methods described in the following list of references were used in this FHI-aims run.
  If you publish the results, please make sure to cite these reference if they apply.
  FHI-aims is an academic code, and for our developers (often, Ph.D. students
  and postdocs), scientific credit in the community is essential.
  Thank you for helping us!

  For any use of FHI-aims, please cite:

    Volker Blum, Ralf Gehrke, Felix Hanke, Paula Havu, Ville Havu,
    Xinguo Ren, Karsten Reuter, and Matthias Scheffler
    'Ab initio molecular simulations with numeric atom-centered orbitals'
    Computer Physics Communications 180, 2175-2196 (2009)
    http://dx.doi.org/10.1016/j.cpc.2009.06.022


  The scalable eigensolver library ELPA was used in your run.
  ELPA is essential especially for large systems on hundreds or thousands of CPUs.
  For ELPA, please cite:

    Andreas Marek, Volker Blum, Rainer Johanni, Ville Havu, Bruno Lang,
    Thomas Auckenthaler, Alexander Heinecke, Hans-Joachim Bungartz, and Hermann Lederer,
    'The ELPA Library - Scalable Parallel Eigenvalue Solutions
    for Electronic Structure Theory and Computational Science'
    The Journal of Physics: Condensed Matter 26, 213201 (2014).
    http://dx.doi.org/10.1088/0953-8984/26/21/213201


  The ELSI infrastructure was used in your run to solve the Kohn-Sham electronic structure.
  Please check out http://elsi-interchange.org to learn more.
  If scalability is important for your project, please acknowledge ELSI by citing:

    V. W-z. Yu, F. Corsetti, A. Garcia, W. P. Huhn, M. Jacquelin, W. Jia,
    B. Lange, L. Lin, J. Lu, W. Mi, A. Seifitokaldani, A. Vazquez-Mayagoitia,
    C. Yang, H. Yang, and V. Blum
    'ELSI: A unified software interface for Kohn-Sham electronic structure solvers'
    Computer Physics Communications 222, 267-285 (2018).
    http://dx.doi.org/10.1016/j.cpc.2017.09.007


  For the real-space grid partitioning and parallelization used in this calculation, please cite:

    Ville Havu, Volker Blum, Paula Havu, and Matthias Scheffler,
    'Efficient O(N) integration for all-electron electronic structure calculation'
    'using numerically tabulated basis functions'
    Journal of Computational Physics 228, 8367-8379 (2009).
    http://dx.doi.org/10.1016/j.jcp.2009.08.008

  Of course, there are many other important community references, e.g., those cited in the
  above references. Our list is limited to references that describe implementations in the
  FHI-aims code. The reason is purely practical (length of this list) - please credit others as well.

 * A warning was issued further up regarding the accuracy of onsite integrals.
   An integral with a negative eigenvalue was among the flagged integrals.
   In most standard situations, this warning is probably harmless.
   If needed, this can be verified by adjusting the radial_multiplier flag.

------------------------------------------------------------
          Leaving FHI-aims.
          Date     :  20221012, Time     :  121834.971

          Computational steps:
          | Number of self-consistency cycles          :           93
          | Number of SCF (re)initializations          :            8
          | Number of relaxation steps                 :            7

          Detailed time accounting                     :  max(cpu_time)    wall_clock(cpu1)
          | Total time                                 :      292.512 s         293.262 s
          | Preparation time                           :        0.385 s           0.387 s
          | Boundary condition initalization           :        0.122 s           0.074 s
          | Grid partitioning                          :        1.590 s           1.594 s
          | Preloading free-atom quantities on grid    :        1.548 s           1.552 s
          | Free-atom superposition energy             :        0.301 s           0.302 s
          | Total time for integrations                :       52.142 s          52.263 s
          | Total time for solution of K.-S. equations :       54.665 s          54.800 s
          | Total time for EV reorthonormalization     :        1.949 s           1.950 s
          | Total time for density & force components  :      141.274 s         141.574 s
          | Total time for mixing                      :        0.526 s           0.529 s
          | Total time for Hartree multipole update    :        0.755 s           0.764 s
          | Total time for Hartree multipole sum       :       36.336 s          36.426 s
          | Total time for total energy evaluation     :        0.025 s           0.053 s
          | Total time for scaled ZORA corrections     :        0.000 s           0.000 s

          Partial memory accounting:
          | Residual value for overall tracked memory usage across tasks :           0.000 MB (should be 0.000 MB)
          | Peak values for overall tracked memory usage (after allocating wave_pulay):
          |   Minimum:       70.080 MB (on task  4)
          |   Maximum:       70.786 MB (on task 10)
          |   Average:       70.519 MB
          | Largest tracked array allocation (+KS_eigenvector):
          |   Minimum:       31.535 MB (on task  1)
          |   Maximum:       31.535 MB (on task  1)
          |   Average:       31.535 MB
          Note:  These values currently only include a subset of arrays which are explicitly tracked.
          The "true" memory usage will be greater.

          Have a nice day.
------------------------------------------------------------
