  MPI-parallelism will be employed.
------------------------------------------------------------
          Invoking FHI-aims ...
          Version 171221_1
          Compiled on 2020/07/14 at 14:43:00 on host scc1.

          When using FHI-aims, please cite the following reference:

          Volker Blum, Ralf Gehrke, Felix Hanke, Paula Havu,
          Ville Havu, Xinguo Ren, Karsten Reuter, and Matthias Scheffler,
          'Ab Initio Molecular Simulations with Numeric Atom-Centered Orbitals',
          Computer Physics Communications 180, 2175-2196 (2009)

          For any questions about FHI-aims, please visit the aimsclub website
          with its forums and wiki. Contributions to both the forums and the
          wiki are warmly encouraged - they are for you, and everyone is welcome there.

------------------------------------------------------------



  Date     :  20221012, Time     :  132612.799
  Time zero on CPU 1             :   0.672120000000000E-01  s.
  Internal wall clock time zero  :           434813172.799  s.

  FHI-aims created a unique identifier for this run for later identification
  aims_uuid : 0F5F6982-7CC1-4AB4-AB29-92CE8079AE2C

  Using       16 parallel tasks.
  Task        0 on host scc-gc4 reporting.
  Task        1 on host scc-gc4 reporting.
  Task        2 on host scc-gc4 reporting.
  Task        3 on host scc-gc4 reporting.
  Task        4 on host scc-gc4 reporting.
  Task        5 on host scc-gc4 reporting.
  Task        6 on host scc-gc4 reporting.
  Task        7 on host scc-gc4 reporting.
  Task        8 on host scc-gc4 reporting.
  Task        9 on host scc-gc4 reporting.
  Task       10 on host scc-gc4 reporting.
  Task       11 on host scc-gc4 reporting.
  Task       12 on host scc-gc4 reporting.
  Task       13 on host scc-gc4 reporting.
  Task       14 on host scc-gc4 reporting.
  Task       15 on host scc-gc4 reporting.

  Performing system and environment tests:
  | Environment variable OMP_NUM_THREADS correctly set to 1.
  | Stacksize not measured: no C compiler
  | Checking for scalapack...
  | Testing pdtran()...
  | All pdtran() tests passed.

  Obtaining array dimensions for all initial allocations:
  
  -----------------------------------------------------------------------
  Parsing control.in (first pass over file, find array dimensions only).
  The contents of control.in will be repeated verbatim below
  unless switched off by setting 'verbatim_writeout .false.' .
  in the first line of control.in .
  -----------------------------------------------------------------------
  
  ##################################################
  #
  #  input file : OMepyz
  #
  ##################################################
  #
  #  Physical model
  #
    xc                 pbe
    spin               none
    charge             0
  #  KS_method	     lapack_fast
  #
  #  SCF convergence
  #
    occupation_type    gaussian 0.01
    mixer              pulay
      n_max_pulay        10
      charge_mix_param   0.2
    sc_accuracy_rho    1E-4
    sc_accuracy_eev    1E-2
    sc_accuracy_etot   1E-6
  # sc_accuracy_forces 1E-4
    sc_iter_limit      500
  #
  #  Relaxation
  #
    relax_geometry   bfgs 1.e-2
  #
  
  #  output an overlap matrix & wave functions
  #  to enable a post-processor transport calculation :
  #   output aitranss
  
  #  to enable restart of the calculation
  #   restart aims.restart
  
  #  scalar-relativistic treatment
     relativistic atomic_zora scalar
  #################################################################################
  #
  #  FHI-aims code project
  #  VB, Fritz-Haber Institut, 2009
  #
  #  Suggested "light" defaults for H atom (to be pasted into control.in file)
  #  Be sure to double-check any results obtained with these settings for post-processing,
  #  e.g., with the "tight" defaults and larger basis sets.
  #
  ################################################################################
    species        H
  #     global species definitions
      nucleus             1
      mass                1.00794
  #
      l_hartree           4
  #
      cut_pot             3.5  1.5  1.0
      basis_dep_cutoff    1e-4
  #
      radial_base         24 5.0
      radial_multiplier   1
      angular_grids       specified
        division   0.2421   50
        division   0.3822  110
        division   0.4799  194
        division   0.5341  302
  #      division   0.5626  434
  #      division   0.5922  590
  #      division   0.6542  770
  #      division   0.6868 1202
  #      outer_grid  770
        outer_grid  302
  ################################################################################
  #
  #  Definition of "minimal" basis
  #
  ################################################################################
  #     valence basis states
      valence      1  s   1.
  #     ion occupancy
      ion_occ      1  s   0.5
  ################################################################################
  #
  #  Suggested additional basis functions. For production calculations,
  #  uncomment them one after another (the most important basis functions are
  #  listed first).
  #
  #  Basis constructed for dimers: 0.5 A, 0.7 A, 1.0 A, 1.5 A, 2.5 A
  #
  ################################################################################
  #  "First tier" - improvements: -1014.90 meV to -62.69 meV
       hydro 2 s 2.1
       hydro 2 p 3.5
  #  "Second tier" - improvements: -12.89 meV to -1.83 meV
  #     hydro 1 s 0.85
  #     hydro 2 p 3.7
  #     hydro 2 s 1.2
  #     hydro 3 d 7
  #  "Third tier" - improvements: -0.25 meV to -0.12 meV
  #     hydro 4 f 11.2
  #     hydro 3 p 4.8
  #     hydro 4 d 9
  #     hydro 3 s 3.2
  ################################################################################
  #
  #  FHI-aims code project
  #  VB, Fritz-Haber Institut, 2009
  #
  #  Suggested "light" defaults for C atom (to be pasted into control.in file)
  #  Be sure to double-check any results obtained with these settings for post-processing,
  #  e.g., with the "tight" defaults and larger basis sets.
  #
  ################################################################################
    species        C
  #     global species definitions
      nucleus             6
      mass                12.0107
  #
      l_hartree           4
  #
      cut_pot             3.5  1.5  1.0
      basis_dep_cutoff    1e-4
  #
      radial_base         34 5.0
      radial_multiplier   1
      angular_grids specified
        division   0.3326   50
        division   0.5710  110
        division   0.7727  194
        division   0.8772  302
  #      division   0.9334  434
  #      division   0.9625  590
  #      division   0.9924  770
  #      division   1.0230  974
  #      division   1.4589 1202
  #     outer_grid  974
       outer_grid 302
  ################################################################################
  #
  #  Definition of "minimal" basis
  #
  ################################################################################
  #     valence basis states
      valence      2  s   2.
      valence      2  p   2.
  #     ion occupancy
      ion_occ      2  s   1.
      ion_occ      2  p   1.
  ################################################################################
  #
  #  Suggested additional basis functions. For production calculations,
  #  uncomment them one after another (the most important basis functions are
  #  listed first).
  #
  #  Constructed for dimers: 1.0 A, 1.25 A, 1.5 A, 2.0 A, 3.0 A
  #
  ################################################################################
  #  "First tier" - improvements: -1214.57 meV to -155.61 meV
       hydro 2 p 1.7
       hydro 3 d 6
       hydro 2 s 4.9
  #  "Second tier" - improvements: -67.75 meV to -5.23 meV
  #     hydro 4 f 9.8
  #     hydro 3 p 5.2
  #     hydro 3 s 4.3
  #     hydro 5 g 14.4
  #     hydro 3 d 6.2
  #  "Third tier" - improvements: -2.43 meV to -0.60 meV
  #     hydro 2 p 5.6
  #     hydro 2 s 1.4
  #     hydro 3 d 4.9
  #     hydro 4 f 11.2
  #  "Fourth tier" - improvements: -0.39 meV to -0.18 meV
  #     hydro 2 p 2.1
  #     hydro 5 g 16.4
  #     hydro 4 d 13.2
  #     hydro 3 s 13.6
  #     hydro 4 f 17.6
  #  Further basis functions - improvements: -0.08 meV and below
  #     hydro 3 s 2
  #     hydro 3 p 6
  #     hydro 4 d 20
  ################################################################################
  #
  #  FHI-aims code project
  #  VB, Fritz-Haber Institut, 2009
  #
  #  Suggested "light" defaults for N atom (to be pasted into control.in file)
  #  Be sure to double-check any results obtained with these settings for post-processing,
  #  e.g., with the "tight" defaults and larger basis sets.
  #
  ################################################################################
    species        N
  #     global species definitions
      nucleus             7
      mass                14.0067
  #
      l_hartree           4
  #
      cut_pot             3.5  1.5  1.0
      basis_dep_cutoff    1e-4
  #
      radial_base         35 5.0
      radial_multiplier   1
      angular_grids       specified
        division   0.2599   50
        division   0.4601  110
        division   0.5885  194
        division   0.6503  302
  #      division   0.6939  434
  #      division   0.7396  590
  #      division   0.7632  770
  #      division   0.8122  974
  #      division   1.1604 1202
  #      outer_grid  974
        outer_grid  302
  ################################################################################
  #
  #  Definition of "minimal" basis
  #
  ################################################################################
  #     valence basis states
      valence      2  s   2.
      valence      2  p   3.
  #     ion occupancy
      ion_occ      2  s   1.
      ion_occ      2  p   2.
  ################################################################################
  #
  #  Suggested additional basis functions. For production calculations,
  #  uncomment them one after another (the most important basis functions are
  #  listed first).
  #
  #  Constructed for dimers: 1.0 A, 1.1 A, 1.5 A, 2.0 A, 3.0 A
  #
  ################################################################################
  #  "First tier" - improvements: -1193.42 meV to -220.60 meV
       hydro 2 p 1.8
       hydro 3 d 6.8
       hydro 3 s 5.8
  #  "Second tier" - improvements: -80.21 meV to -6.86 meV
  #     hydro 4 f 10.8
  #     hydro 3 p 5.8
  #     hydro 1 s 0.8
  #     hydro 5 g 16
  #     hydro 3 d 4.9
  #  "Third tier" - improvements: -4.29 meV to -0.53 meV
  #     hydro 3 s 16
  #     ionic 2 p auto
  #     hydro 3 d 6.6
  #     hydro 4 f 11.6
  #  "Fourth tier" - improvements: -0.75 meV to -0.25 meV
  #     hydro 2 p 4.5
  #     hydro 2 s 2.4
  #     hydro 5 g 14.4
  #     hydro 4 d 14.4
  #     hydro 4 f 16.8
  # Further basis functions - -0.21 meV and below
  #     hydro 3 p 14.8
  #     hydro 3 s 4.4
  #     hydro 3 d 19.6
  #     hydro 5 g 12.8
  ################################################################################
  #
  #  FHI-aims code project
  #  VB, Fritz-Haber Institut, 2009
  #
  #  Suggested "light" defaults for O atom (to be pasted into control.in file)
  #  Be sure to double-check any results obtained with these settings for post-processing,
  #  e.g., with the "tight" defaults and larger basis sets.
  #
  ################################################################################
    species        O
  #     global species definitions
      nucleus             8
      mass                15.9994
  #
      l_hartree           4
  #
      cut_pot             3.5  1.5  1.0
      basis_dep_cutoff    1e-4
  #
      radial_base         36 5.0
      radial_multiplier   1
       angular_grids specified
        division   0.2659   50
        division   0.4451  110
        division   0.6052  194
        division   0.7543  302
  #      division   0.8014  434
  #      division   0.8507  590
  #      division   0.8762  770
  #      division   0.9023  974
  #      division   1.2339 1202
  #      outer_grid 974
        outer_grid 302
  ################################################################################
  #
  #  Definition of "minimal" basis
  #
  ################################################################################
  #     valence basis states
      valence      2  s   2.
      valence      2  p   4.
  #     ion occupancy
      ion_occ      2  s   1.
      ion_occ      2  p   3.
  ################################################################################
  #
  #  Suggested additional basis functions. For production calculations,
  #  uncomment them one after another (the most important basis functions are
  #  listed first).
  #
  #  Constructed for dimers: 1.0 A, 1.208 A, 1.5 A, 2.0 A, 3.0 A
  #
  ################################################################################
  #  "First tier" - improvements: -699.05 meV to -159.38 meV
       hydro 2 p 1.8
       hydro 3 d 7.6
       hydro 3 s 6.4
  #  "Second tier" - improvements: -49.91 meV to -5.39 meV
  #     hydro 4 f 11.6
  #     hydro 3 p 6.2
  #     hydro 3 d 5.6
  #     hydro 5 g 17.6
  #     hydro 1 s 0.75
  #  "Third tier" - improvements: -2.83 meV to -0.50 meV
  #     ionic 2 p auto
  #     hydro 4 f 10.8
  #     hydro 4 d 4.7
  #     hydro 2 s 6.8
  #  "Fourth tier" - improvements: -0.40 meV to -0.12 meV
  #     hydro 3 p 5
  #     hydro 3 s 3.3
  #     hydro 5 g 15.6
  #     hydro 4 f 17.6
  #     hydro 4 d 14
  # Further basis functions - -0.08 meV and below
  #     hydro 3 s 2.1
  #     hydro 4 d 11.6
  #     hydro 3 p 16
  #     hydro 2 s 17.2
  ################################################################################
    species        Au
  #     global species definitions
      nucleus             79
      mass                196.966569
  #
      l_hartree           4
  #
      cut_pot             3.5  1.5  1.0
      basis_dep_cutoff    1e-4
  #
      radial_base         73 5.0
      radial_multiplier   1
      angular_grids specified
        division   0.5066   50
        division   0.9861  110
        division   1.2821  194
        division   1.5344  302
  #      division   2.0427  434
  #      division   2.1690  590
  #      division   2.2710  770
  #      division   2.3066  974
  #      division   2.7597 1202
  #      outer_grid 974
        outer_grid 302
  ################################################################################
  #
  #  Definition of "minimal" basis
  #
  ################################################################################
  #     valence basis states
      valence      6  s   1.
      valence      5  p   6.
      valence      5  d  10.
      valence      4  f  14.
  #     ion occupancy
      ion_occ     6  s   0.
      ion_occ     5  p   6.
      ion_occ     5  d   9.
      ion_occ     4  f   14.
  ################################################################################
  #
  #  Suggested additional basis functions. For production calculations,
  #  uncomment them one after another (the most important basis functions are
  #  listed first).
  #
  #  Constructed for dimers: 2.10, 2.45, 3.00, 4.00 AA
  #
  ################################################################################
  #  "First tier" - max. impr. -161.60  meV, min. impr. -4.53 meV
       ionic 6 p auto
       hydro 4 f 7.4
       ionic 6 s auto
  #     hydro 5 g 10
  #     hydro 6 h 12.8
       hydro 3 d 2.5
  #  "Second tier" - max. impr. -2.46  meV, min. impr. -0.28 meV
  #     hydro 5 f 14.8
  #     hydro 4 d 3.9
  #     hydro 3 p 3.3
  #     hydro 1 s 0.45
  #     hydro 5 g 16.4
  #     hydro 6 h 13.6
  #  "Third tier" - max. impr. -0.49  meV, min. impr. -0.09 meV
  #     hydro 4 f 5.2
  #     hydro 4 d 5
  #     hydro 5 g 8
  #     hydro 5 p 8.2
  #     hydro 6 d 12.4
  #     hydro 6 s 14.8
  #  Further basis functions: -0.08 meV and below
  #     hydro 5 f 18.8
  #     hydro 5 g 20
  #    hydro 5 g 15.2
  
  
  -----------------------------------------------------------------------
  Completed first pass over input file control.in .
  -----------------------------------------------------------------------
  
  
  -----------------------------------------------------------------------
  Parsing geometry.in (first pass over file, find array dimensions only).
  The contents of geometry.in will be repeated verbatim below
  unless switched off by setting 'verbatim_writeout .false.' .
  in the first line of geometry.in .
  -----------------------------------------------------------------------
  
  # opt: au
  atom     -1.87018997     1.93445836     11.57523568     N
  atom     -2.57390806     3.04855931     11.76981461     C
  atom     -1.63876287     1.83206473     10.20624192     C
  atom     -2.22311976     2.91366415     9.58390251     C
  atom     -2.80664801     3.66448101     10.58428629     N
  atom     -2.90894705     3.42345560     12.73085028     H
  atom     -2.26568087     3.20237556     8.54000623     H
  atom     -0.90686788     0.69999480     9.55761096     C
  atom     -0.02654023     0.43594923     10.16581487     H
  atom     -0.54136719     1.03576405     8.57426056     H
  atom     -1.79100945     -0.53803687     9.35087797     C
  atom     -2.00590408     -1.01260349     10.32232454     H
  atom     -2.74643562     -0.24513243     8.8951866     H
  atom     -1.13425649     -1.50399266     8.42420098     N
  atom     -0.18746681     -1.71890733     8.75476206     H
  atom     -1.64481162     -2.39184238     8.43834689     H
  atom     -3.30983139     4.53857599     10.4617571     H
  atom     -1.03041255     -0.96771910     6.14821081     Au
  atom     -0.96713940     1.00098086     4.2638668     Au
  atom     0.90682099     -1.26006350     4.17332487     Au
  atom     -1.93484760     -1.76713430     3.70286194     Au
  atom     -0.98364858     2.90868289     2.23397374     Au
    constrain_relaxation .true.
  atom     0.89728549     0.72320790     2.19342713     Au
    constrain_relaxation .true.
  atom     2.77821955     -1.46226708     2.1528805     Au
    constrain_relaxation .true.
  atom     -1.90122553     0.22622760     1.70639062     Au
    constrain_relaxation .true.
  atom     -0.02029146     -1.95924740     1.66584399     Au
    constrain_relaxation .true.
  atom     -2.81880248     -2.45622772     1.17880748     Au
    constrain_relaxation .true.
  atom     0.91757695     2.68245530     0.07758314     Au
    constrain_relaxation .true.
  atom     2.79851101     0.49698031     0.03703651     Au
    constrain_relaxation .true.
  atom     -1.88093406     2.18547499     -0.40945337     Au
    constrain_relaxation .true.
  atom     0.00000000     0.00000000     -0.45     Au
    constrain_relaxation .true.
  atom     1.88093406     -2.18547499     -0.49054662     Au
    constrain_relaxation .true.
  atom     -2.79851101     -0.49698032     -0.9370365     Au
    constrain_relaxation .true.
  atom     -0.91757696     -2.68245530     -0.97758313     Au
    constrain_relaxation .true.
  atom     -3.78215957     2.41170258     1.74693724     Au
    constrain_relaxation .true.
  atom     -1.26466104     0.80382091     13.43977933     Au
  atom     -0.20089735     -0.93912970     15.18452981     Au
  atom     0.14762464     1.94850360     15.55655313     Au
  atom     -2.53224653     0.78806496     15.88813748     Au
  atom     0.80067538     -2.72226339     17.08960063     Au
    constrain_relaxation .true.
  atom     1.18422876     0.11978134     17.39213394     Au
    constrain_relaxation .true.
  atom     1.56778214     2.96182608     17.69466725     Au
    constrain_relaxation .true.
  atom     -1.43900279     -1.02624961     17.7401671     Au
    constrain_relaxation .true.
  atom     -1.05544942     1.81579512     18.04270041     Au
    constrain_relaxation .true.
  atom     -3.67868099     0.66976417     18.39073358     Au
    constrain_relaxation .true.
  atom     2.23967818     -1.69601378     19.36818365     Au
    constrain_relaxation .true.
  atom     2.62323157     1.14603095     19.67071695     Au
    constrain_relaxation .true.
  atom     -0.38355337     -2.84204474     19.7162168     Au
    constrain_relaxation .true.
  atom     0.00000000     0.00000000     20.01875011     Au
    constrain_relaxation .true.
  atom     0.38355338     2.84204474     20.32128342     Au
    constrain_relaxation .true.
  atom     -2.62323155     -1.14603095     20.36678328     Au
    constrain_relaxation .true.
  atom     -2.23967818     1.69601379     20.66931659     Au
    constrain_relaxation .true.
  atom     -1.82255617     -3.86829434     17.4376338     Au
    constrain_relaxation .true.
  
  -----------------------------------------------------------------------
  Completed first pass over input file geometry.in .
  -----------------------------------------------------------------------
  

  Basic array size parameters:
  | Number of species                 :        5
  | Number of atoms                   :       53
  | Max. basis fn. angular momentum   :        3
  | Max. atomic/ionic basis occupied n:        6
  | Max. number of basis fn. types    :        3
  | Max. radial fns per species/type  :       14
  | Max. logarithmic grid size        :     1488
  | Max. radial integration grid size :       73
  | Max. angular integration grid size:      302
  | Max. angular grid division number :        8
  | Radial grid for Hartree potential :     1488
  | Number of spin channels           :        1

------------------------------------------------------------
          Reading file control.in.
------------------------------------------------------------
  XC: Using PBE gradient-corrected functionals.
  Spin treatment: No spin polarisation.
  Charge =   0.000000E+00: Neutral system requested explicitly.
  Occupation type: Gaussian broadening, width =   0.100000E-01 eV.
  Using pulay charge density mixing.
  Pulay mixing - number of memorized iterations:   10
  Charge density mixing - mixing parameter:     0.2000
  Convergence accuracy of self-consistent charge density:  0.1000E-03
  Convergence accuracy of sum of eigenvalues:  0.1000E-01
  Convergence accuracy of total energy:  0.1000E-05
  Maximum number of s.-c. iterations  :   500
  Geometry relaxation: Modified BFGS - TRM (trust radius method, i.e., trusted quadratic extrapolation).
  Convergence accuracy for geometry relaxation: Maximum force <   0.100000E-01 eV/A.
  Scalar relativistic treatment of kinetic energy: on-site free-atom approximation to ZORA.
 
  Reading configuration options for species H                   .
  | Found nuclear charge :   1.0000
  | Found atomic mass :    1.00794000000000      amu
  | Found l_max for Hartree potential  :   4
  | Found cutoff potl. onset [A], width [A], scale factor :    3.50000    1.50000    1.00000
  | Threshold for basis-dependent cutoff potential is   0.100000E-03
  | Found data for basic radial integration grid :    24 points, outermost radius =    5.000 A
  | Found multiplier for basic radial grid :   1
  | Found angular grid specification: user-specified.
  | Specified grid contains     5 separate shells.
  | Check grid settings after all constraints further below.
  | Found free-atom valence shell :  1 s   1.000
  | Found free-ion valence shell :  1 s   0.500
  | Found hydrogenic basis function :  2 s   2.100
  | Found hydrogenic basis function :  2 p   3.500
  Species H                   : Missing cutoff potential type.
  Defaulting to exp(1/x)/(1-x)^2 type cutoff potential.
  Species H : No 'logarithmic' tag. Using default grid for free atom:
  | Default logarithmic grid data [bohr] : 0.1000E-03 0.1000E+03 0.1012E+01
  Species H : On-site basis accuracy parameter (for Gram-Schmidt orthonormalisation) not specified.
  Using default value basis_acc =  0.1000000E-03.
  Species H                   : Using default innermost maximum threshold i_radial=  2 for radial functions.
  Species H                   : Default cutoff onset for free atom density etc. : 0.35000000E+01 AA.
  Species H                   : Basic radial grid will be enhanced according to radial_multiplier =   1, to contain    24 grid points.
 
  Reading configuration options for species C                   .
  | Found nuclear charge :   6.0000
  | Found atomic mass :    12.0107000000000      amu
  | Found l_max for Hartree potential  :   4
  | Found cutoff potl. onset [A], width [A], scale factor :    3.50000    1.50000    1.00000
  | Threshold for basis-dependent cutoff potential is   0.100000E-03
  | Found data for basic radial integration grid :    34 points, outermost radius =    5.000 A
  | Found multiplier for basic radial grid :   1
  | Found angular grid specification: user-specified.
  | Specified grid contains     5 separate shells.
  | Check grid settings after all constraints further below.
  | Found free-atom valence shell :  2 s   2.000
  | Found free-atom valence shell :  2 p   2.000
  | Found free-ion valence shell :  2 s   1.000
  | Found free-ion valence shell :  2 p   1.000
  | Found hydrogenic basis function :  2 p   1.700
  | Found hydrogenic basis function :  3 d   6.000
  | Found hydrogenic basis function :  2 s   4.900
  Species C                   : Missing cutoff potential type.
  Defaulting to exp(1/x)/(1-x)^2 type cutoff potential.
  Species C : No 'logarithmic' tag. Using default grid for free atom:
  | Default logarithmic grid data [bohr] : 0.1000E-03 0.1000E+03 0.1012E+01
  Species C : On-site basis accuracy parameter (for Gram-Schmidt orthonormalisation) not specified.
  Using default value basis_acc =  0.1000000E-03.
  Species C                   : Using default innermost maximum threshold i_radial=  2 for radial functions.
  Species C                   : Default cutoff onset for free atom density etc. : 0.35000000E+01 AA.
  Species C                   : Basic radial grid will be enhanced according to radial_multiplier =   1, to contain    34 grid points.
 
  Reading configuration options for species N                   .
  | Found nuclear charge :   7.0000
  | Found atomic mass :    14.0067000000000      amu
  | Found l_max for Hartree potential  :   4
  | Found cutoff potl. onset [A], width [A], scale factor :    3.50000    1.50000    1.00000
  | Threshold for basis-dependent cutoff potential is   0.100000E-03
  | Found data for basic radial integration grid :    35 points, outermost radius =    5.000 A
  | Found multiplier for basic radial grid :   1
  | Found angular grid specification: user-specified.
  | Specified grid contains     5 separate shells.
  | Check grid settings after all constraints further below.
  | Found free-atom valence shell :  2 s   2.000
  | Found free-atom valence shell :  2 p   3.000
  | Found free-ion valence shell :  2 s   1.000
  | Found free-ion valence shell :  2 p   2.000
  | Found hydrogenic basis function :  2 p   1.800
  | Found hydrogenic basis function :  3 d   6.800
  | Found hydrogenic basis function :  3 s   5.800
  Species N                   : Missing cutoff potential type.
  Defaulting to exp(1/x)/(1-x)^2 type cutoff potential.
  Species N : No 'logarithmic' tag. Using default grid for free atom:
  | Default logarithmic grid data [bohr] : 0.1000E-03 0.1000E+03 0.1012E+01
  Species N : On-site basis accuracy parameter (for Gram-Schmidt orthonormalisation) not specified.
  Using default value basis_acc =  0.1000000E-03.
  Species N                   : Using default innermost maximum threshold i_radial=  2 for radial functions.
  Species N                   : Default cutoff onset for free atom density etc. : 0.35000000E+01 AA.
  Species N                   : Basic radial grid will be enhanced according to radial_multiplier =   1, to contain    35 grid points.
 
  Reading configuration options for species O                   .
  | Found nuclear charge :   8.0000
  | Found atomic mass :    15.9994000000000      amu
  | Found l_max for Hartree potential  :   4
  | Found cutoff potl. onset [A], width [A], scale factor :    3.50000    1.50000    1.00000
  | Threshold for basis-dependent cutoff potential is   0.100000E-03
  | Found data for basic radial integration grid :    36 points, outermost radius =    5.000 A
  | Found multiplier for basic radial grid :   1
  | Found angular grid specification: user-specified.
  | Specified grid contains     5 separate shells.
  | Check grid settings after all constraints further below.
  | Found free-atom valence shell :  2 s   2.000
  | Found free-atom valence shell :  2 p   4.000
  | Found free-ion valence shell :  2 s   1.000
  | Found free-ion valence shell :  2 p   3.000
  | Found hydrogenic basis function :  2 p   1.800
  | Found hydrogenic basis function :  3 d   7.600
  | Found hydrogenic basis function :  3 s   6.400
  Species O                   : Missing cutoff potential type.
  Defaulting to exp(1/x)/(1-x)^2 type cutoff potential.
  Species O : No 'logarithmic' tag. Using default grid for free atom:
  | Default logarithmic grid data [bohr] : 0.1000E-03 0.1000E+03 0.1012E+01
  Species O : On-site basis accuracy parameter (for Gram-Schmidt orthonormalisation) not specified.
  Using default value basis_acc =  0.1000000E-03.
  Species O                   : Using default innermost maximum threshold i_radial=  2 for radial functions.
  Species O                   : Default cutoff onset for free atom density etc. : 0.35000000E+01 AA.
  Species O                   : Basic radial grid will be enhanced according to radial_multiplier =   1, to contain    36 grid points.
 
  Reading configuration options for species Au                  .
  | Found nuclear charge :  79.0000
  | Found atomic mass :    196.966569000000      amu
  | Found l_max for Hartree potential  :   4
  | Found cutoff potl. onset [A], width [A], scale factor :    3.50000    1.50000    1.00000
  | Threshold for basis-dependent cutoff potential is   0.100000E-03
  | Found data for basic radial integration grid :    73 points, outermost radius =    5.000 A
  | Found multiplier for basic radial grid :   1
  | Found angular grid specification: user-specified.
  | Specified grid contains     5 separate shells.
  | Check grid settings after all constraints further below.
  | Found free-atom valence shell :  6 s   1.000
  | Found free-atom valence shell :  5 p   6.000
  | Found free-atom valence shell :  5 d  10.000
  | Found free-atom valence shell :  4 f  14.000
  | Found free-ion valence shell :  6 s   0.000
  | Found free-ion valence shell :  5 p   6.000
  | Found free-ion valence shell :  5 d   9.000
  | Found free-ion valence shell :  4 f  14.000
  | Found ionic basis function :  6 p , default cutoff radius.
  | Found hydrogenic basis function :  4 f   7.400
  | Found ionic basis function :  6 s , default cutoff radius.
  | Found hydrogenic basis function :  3 d   2.500
  Species Au                  : Missing cutoff potential type.
  Defaulting to exp(1/x)/(1-x)^2 type cutoff potential.
  Species Au: No 'logarithmic' tag. Using default grid for free atom:
  | Default logarithmic grid data [bohr] : 0.1000E-03 0.1000E+03 0.1012E+01
  | Will include ionic basis functions of  2.0-fold positive Au                   ion.
  Species Au: On-site basis accuracy parameter (for Gram-Schmidt orthonormalisation) not specified.
  Using default value basis_acc =  0.1000000E-03.
  Species Au                  : Using default innermost maximum threshold i_radial=  2 for radial functions.
  Species Au                  : Default cutoff onset for free atom density etc. : 0.35000000E+01 AA.
  Species Au                  : Basic radial grid will be enhanced according to radial_multiplier =   1, to contain    73 grid points.
 
  Finished reading input file 'control.in'. Consistency checks are next.
 
  MPI_IN_PLACE appears to work with this MPI implementation.
  | Keeping use_mpi_in_place .true. (see manual).
  Target number of points in a grid batch is not set. Defaulting to  100
  Method for grid partitioning is not set. Defaulting to parallel hash+maxmin partitioning.
  Batch size limit is not set. Defaulting to    200
  By default, will store active basis functions for each batch.
  If in need of memory, prune_basis_once .false. can be used to disable this option.
  communication_type for Hartree potential was not specified.
  Defaulting to calc_hartree .
  Pulay mixer: Number of initial linear mixing iterations not set.
  Defaulting to    0 iterations.
  Work space size for distributed Hartree potential not set.
  Defaulting to   0.200000E+03 MB.
  Algorithm-dependent basis array size parameters:
  | n_max_pulay                         :       10
  Presetting      1001 iterations before the initial mixing cycle
  is restarted anyway using the sc_init_iter criterion / keyword.
  Presetting a factor      1.000 between actual scf density residual
  and density convergence criterion sc_accuracy_rho below which sc_init_iter
  takes no effect.
  No maximum number of relaxation steps, defaulting to     1000
  Default initial Hessian is Lindh matrix (thres = 15.00) plus  0.200000E+01 eV/A^2 times unity.
  No maximum energy tolerance for TRM/BFGS moves, defaulting to   0.200000E-03
  No harmonic length scale. Defaulting to   0.250000E-01 A.
  No trust radius initializer. Defaulting to   0.200000E+00 A.
  Force calculation: scf convergence accuracy of forces not set.
  Defaulting to 'sc_accuracy_forces not_checked'.
  Handling of forces: Unphysical translation and rotation will be removed from forces.
  No accuracy limit for integral partition fn. given. Defaulting to  0.1000E-14.
  No threshold value for u(r) in integrations given. Defaulting to  0.1000E-05.
  No accuracy for occupation numbers given. Defaulting to  0.1000E-12.
  No threshold value for occupation numbers given. Defaulting to  0.0000E+00.
  No accuracy for fermi level given. Defaulting to  0.1000E-19.
  Maximum # of iterations to find E_F not set. Defaulting to  200.
  Preferred method for the eigenvalue solver ('KS_method') not specified in 'control.in'.
  Calling BLACS routine to test compilation state
  Since ScaLAPACK support is enabled, defaulting to 'elsi'.
  Will not use alltoall communication since running on < 1024 CPUs.
  Threshold for basis singularities not set.
  Default threshold for basis singularities:  0.1000E-04
  partition_type (choice of integration weights) for integrals was not specified.
  | Using a version of the partition function of Stratmann and coworkers ('stratmann_smoother').
  | At each grid point, the set of atoms used to build the partition table is smoothly restricted to
  | only those atoms whose free-atom density would be non-zero at that grid point.
  Partitioning for Hartree potential was not defined. Using partition_type for integrals.
  | Adjusted default value of keyword multip_moments_threshold to:       0.10000000E-11
  | This value may affect high angular momentum components of the Hartree potential in periodic systems.
  No q(lm)/r^(l+1) cutoff set for long-range Hartree potential.
  | Using default value of  0.100000E-09 .
  | Verify using the multipole_threshold keyword.
  Defaulting to new monopole extrapolation.
  Density update method: automatic selection selected.
  Geometry relaxation: A file "geometry.in.next_step" is written out by default after each step.
  | This file contains the geometry of the current relaxation step as well as
  | the current Hessian matrix needed to restart the relaxation algorithm.
  | If you do not want part or all of this information, use the keywords
  | "write_restart_geometry" or "hessian_to_restart_geometry" to switch the output off.
------------------------------------------------------------


------------------------------------------------------------
          Reading geometry description geometry.in.
------------------------------------------------------------
  Found relaxation constraint for atom     22: All coordinates fixed.
  Found relaxation constraint for atom     23: All coordinates fixed.
  Found relaxation constraint for atom     24: All coordinates fixed.
  Found relaxation constraint for atom     25: All coordinates fixed.
  Found relaxation constraint for atom     26: All coordinates fixed.
  Found relaxation constraint for atom     27: All coordinates fixed.
  Found relaxation constraint for atom     28: All coordinates fixed.
  Found relaxation constraint for atom     29: All coordinates fixed.
  Found relaxation constraint for atom     30: All coordinates fixed.
  Found relaxation constraint for atom     31: All coordinates fixed.
  Found relaxation constraint for atom     32: All coordinates fixed.
  Found relaxation constraint for atom     33: All coordinates fixed.
  Found relaxation constraint for atom     34: All coordinates fixed.
  Found relaxation constraint for atom     35: All coordinates fixed.
  Found relaxation constraint for atom     40: All coordinates fixed.
  Found relaxation constraint for atom     41: All coordinates fixed.
  Found relaxation constraint for atom     42: All coordinates fixed.
  Found relaxation constraint for atom     43: All coordinates fixed.
  Found relaxation constraint for atom     44: All coordinates fixed.
  Found relaxation constraint for atom     45: All coordinates fixed.
  Found relaxation constraint for atom     46: All coordinates fixed.
  Found relaxation constraint for atom     47: All coordinates fixed.
  Found relaxation constraint for atom     48: All coordinates fixed.
  Found relaxation constraint for atom     49: All coordinates fixed.
  Found relaxation constraint for atom     50: All coordinates fixed.
  Found relaxation constraint for atom     51: All coordinates fixed.
  Found relaxation constraint for atom     52: All coordinates fixed.
  Found relaxation constraint for atom     53: All coordinates fixed.
  Input structure read successfully.
  The structure contains       53 atoms,  and a total of       2904.000 electrons.

  Input geometry:
  | No unit cell requested.
  | Atomic structure:
  |       Atom                x [A]            y [A]            z [A]
  |    1: Species N            -1.87018997        1.93445836       11.57523568
  |    2: Species C            -2.57390806        3.04855931       11.76981461
  |    3: Species C            -1.63876287        1.83206473       10.20624192
  |    4: Species C            -2.22311976        2.91366415        9.58390251
  |    5: Species N            -2.80664801        3.66448101       10.58428629
  |    6: Species H            -2.90894705        3.42345560       12.73085028
  |    7: Species H            -2.26568087        3.20237556        8.54000623
  |    8: Species C            -0.90686788        0.69999480        9.55761096
  |    9: Species H            -0.02654023        0.43594923       10.16581487
  |   10: Species H            -0.54136719        1.03576405        8.57426056
  |   11: Species C            -1.79100945       -0.53803687        9.35087797
  |   12: Species H            -2.00590408       -1.01260349       10.32232454
  |   13: Species H            -2.74643562       -0.24513243        8.89518660
  |   14: Species N            -1.13425649       -1.50399266        8.42420098
  |   15: Species H            -0.18746681       -1.71890733        8.75476206
  |   16: Species H            -1.64481162       -2.39184238        8.43834689
  |   17: Species H            -3.30983139        4.53857599       10.46175710
  |   18: Species Au           -1.03041255       -0.96771910        6.14821081
  |   19: Species Au           -0.96713940        1.00098086        4.26386680
  |   20: Species Au            0.90682099       -1.26006350        4.17332487
  |   21: Species Au           -1.93484760       -1.76713430        3.70286194
  |   22: Species Au           -0.98364858        2.90868289        2.23397374
  |   23: Species Au            0.89728549        0.72320790        2.19342713
  |   24: Species Au            2.77821955       -1.46226708        2.15288050
  |   25: Species Au           -1.90122553        0.22622760        1.70639062
  |   26: Species Au           -0.02029146       -1.95924740        1.66584399
  |   27: Species Au           -2.81880248       -2.45622772        1.17880748
  |   28: Species Au            0.91757695        2.68245530        0.07758314
  |   29: Species Au            2.79851101        0.49698031        0.03703651
  |   30: Species Au           -1.88093406        2.18547499       -0.40945337
  |   31: Species Au            0.00000000        0.00000000       -0.45000000
  |   32: Species Au            1.88093406       -2.18547499       -0.49054662
  |   33: Species Au           -2.79851101       -0.49698032       -0.93703650
  |   34: Species Au           -0.91757696       -2.68245530       -0.97758313
  |   35: Species Au           -3.78215957        2.41170258        1.74693724
  |   36: Species Au           -1.26466104        0.80382091       13.43977933
  |   37: Species Au           -0.20089735       -0.93912970       15.18452981
  |   38: Species Au            0.14762464        1.94850360       15.55655313
  |   39: Species Au           -2.53224653        0.78806496       15.88813748
  |   40: Species Au            0.80067538       -2.72226339       17.08960063
  |   41: Species Au            1.18422876        0.11978134       17.39213394
  |   42: Species Au            1.56778214        2.96182608       17.69466725
  |   43: Species Au           -1.43900279       -1.02624961       17.74016710
  |   44: Species Au           -1.05544942        1.81579512       18.04270041
  |   45: Species Au           -3.67868099        0.66976417       18.39073358
  |   46: Species Au            2.23967818       -1.69601378       19.36818365
  |   47: Species Au            2.62323157        1.14603095       19.67071695
  |   48: Species Au           -0.38355337       -2.84204474       19.71621680
  |   49: Species Au            0.00000000        0.00000000       20.01875011
  |   50: Species Au            0.38355338        2.84204474       20.32128342
  |   51: Species Au           -2.62323155       -1.14603095       20.36678328
  |   52: Species Au           -2.23967818        1.69601379       20.66931659
  |   53: Species Au           -1.82255617       -3.86829434       17.43763380
  |

  | The smallest distance between any two atoms is         1.01599653 AA.
  |
  | The first atom of this pair is atom number                      5 .
  | The second atom of this pair is atom number                    17 .

  Number of empty states per atom not set in control.in - providing a guess from actual geometry.
  | Total number of empty states used during s.c.f. cycle:      362
  If you use a very high smearing, use empty_states (per atom!) in control.in to increase this value.

  Structure-dependent array size parameters: 
  | Maximum number of distinct radial functions  :       39
  | Maximum number of basis functions            :     2173
  | Number of Kohn-Sham states (occupied + empty):     1814
------------------------------------------------------------

------------------------------------------------------------
          Preparing all fixed parts of the calculation.
------------------------------------------------------------
  Determining machine precision:
    2.225073858507201E-308
  Setting up grids for atomic and cluster calculations.

  Creating wave function, potential, and density for free atoms.

  Species: H

  List of occupied orbitals and eigenvalues:
    n    l              occ      energy [Ha]    energy [eV]
    1    0           1.0000        -0.237593        -6.4652


  Species: C

  List of occupied orbitals and eigenvalues:
    n    l              occ      energy [Ha]    energy [eV]
    1    0           2.0000       -10.046810      -273.3876
    2    0           2.0000        -0.503128       -13.6908
    2    1           2.0000        -0.191849        -5.2205


  Species: N

  List of occupied orbitals and eigenvalues:
    n    l              occ      energy [Ha]    energy [eV]
    1    0           2.0000       -14.143973      -384.8771
    2    0           2.0000        -0.682008       -18.5584
    2    1           3.0000        -0.259605        -7.0642


  Species: O

  List of occupied orbitals and eigenvalues:
    n    l              occ      energy [Ha]    energy [eV]
    1    0           2.0000       -18.926989      -515.0296
    2    0           2.0000        -0.880247       -23.9527
    2    1           4.0000        -0.331514        -9.0210


  Species: Au

  List of occupied orbitals and eigenvalues:
    n    l              occ      energy [Ha]    energy [eV]
    1    0           2.0000     -3256.431199    -88612.0015
    2    0           2.0000      -533.654865    -14521.4877
    3    0           2.0000      -124.232088     -3380.5271
    4    0           2.0000       -26.843821      -730.4575
    5    0           2.0000        -3.974251      -108.1449
    6    0           1.0000        -0.207180        -5.6377
    2    1           6.0000      -460.384091    -12527.6885
    3    1           6.0000      -103.448928     -2814.9886
    4    1           6.0000       -20.075789      -546.2900
    5    1           6.0000        -2.189737       -59.5858
    3    2          10.0000       -81.364825     -2214.0495
    4    2          10.0000       -11.975168      -325.8609
    5    2          10.0000        -0.249072        -6.7776
    4    3          14.0000        -2.985533       -81.2405

  Creating fixed part of basis set: Ionic, confined, hydrogenic.
 
  H                    hydrogenic:
 
  List of hydrogenic basis orbitals: 
    n    l      effective z      eigenvalue [eV]  inner max. [A]     outer max. [A]     outer radius [A]   
    2    0         2.100000       -14.9728           0.193243           1.317208           4.583499
    2    1         3.500000       -41.6669           0.602369           0.602369           3.723403
 
 
  C                    hydrogenic:
 
  List of hydrogenic basis orbitals: 
    n    l      effective z      eigenvalue [eV]  inner max. [A]     outer max. [A]     outer radius [A]   
    2    1         1.700000        -9.7616           1.230570           1.230570           4.607917
    3    2         6.000000       -54.4224           0.792453           0.792453           3.883070
    2    0         4.900000       -81.6679           0.082559           0.562749           3.078220
 
 
  N                    hydrogenic:
 
  List of hydrogenic basis orbitals: 
    n    l      effective z      eigenvalue [eV]  inner max. [A]     outer max. [A]     outer radius [A]   
    2    1         1.800000       -10.9749           1.177451           1.177451           4.573712
    3    2         6.800000       -69.9026           0.704619           0.704619           3.538137
    3    0         5.800000       -50.8545           0.067388           1.191934           4.250239
 
 
  O                    hydrogenic:
 
  List of hydrogenic basis orbitals: 
    n    l      effective z      eigenvalue [eV]  inner max. [A]     outer max. [A]     outer radius [A]   
    2    1         1.800000       -10.9749           1.164242           1.164242           4.578029
    3    2         7.600000       -87.3180           0.624125           0.624125           3.251020
    3    0         6.400000       -61.9207           0.061167           1.081902           4.001998
 
 
  Au                   ion:

  List of free ionic orbitals and eigenvalues:
    n    l      energy [Ha]    energy [eV]
    1    0     -3257.305345    -88635.7882
    2    0      -534.468969    -14543.6406
    3    0      -125.037161     -3402.4343
    4    0       -27.646714      -752.3054
    5    0        -4.773414      -129.8912
    2    1      -461.196653    -12549.7994
    3    1      -104.253556     -2836.8836
    4    1       -20.878488      -568.1326
    5    1        -2.984283       -81.2065
    3    2       -82.168946     -2235.9308
    4    2       -12.777596      -347.6961
    5    2        -1.004504       -27.3340
    4    3        -3.787521      -103.0637


  List of ionic basis orbitals and eigenvalues:
    n    l      energy [Ha]    energy [eV]    outer radius [A]
    6    1        -0.535414       -14.5694       4.560053
    6    0        -0.835538       -22.7361       4.504645

 
  Au                   hydrogenic:
 
  List of hydrogenic basis orbitals: 
    n    l      effective z      eigenvalue [eV]  inner max. [A]     outer max. [A]     outer radius [A]   
    4    3         7.400000       -46.5648           1.145580           1.145580           4.504645
    3    2         2.500000        -9.0892           1.822958           1.822958           4.616141
 

  Adding cutoff potential to free-atom effective potential.
  Creating atomic-like basis functions for current effective potential.

  Species H                   :

  List of atomic basis orbitals and eigenvalues:
    n    l      energy [Ha]    energy [eV]    outer radius [A]
    1    0        -0.237593        -6.4652       4.527807


  Species C                   :

  List of atomic basis orbitals and eigenvalues:
    n    l      energy [Ha]    energy [eV]    outer radius [A]
    1    0       -10.046810      -273.3876       1.934409
    2    0        -0.503128       -13.6908       4.496620
    2    1        -0.191849        -5.2205       4.551928


  Species N                   :

  List of atomic basis orbitals and eigenvalues:
    n    l      energy [Ha]    energy [eV]    outer radius [A]
    1    0       -14.143973      -384.8771       1.637919
    2    0        -0.682008       -18.5584       4.463241
    2    1        -0.259605        -7.0642       4.518138


  Species O                   :

  List of atomic basis orbitals and eigenvalues:
    n    l      energy [Ha]    energy [eV]    outer radius [A]
    1    0       -18.926989      -515.0296       1.415765
    2    0        -0.880247       -23.9527       4.413171
    2    1        -0.331514        -9.0210       4.522403


  Species Au                  :

  List of atomic basis orbitals and eigenvalues:
    n    l      energy [Ha]    energy [eV]    outer radius [A]
    1    0     -3256.431199    -88612.0015       0.120816
    2    0      -533.654865    -14521.4877       0.313506
    3    0      -124.232088     -3380.5271       0.652830
    4    0       -26.843821      -730.4575       1.359424
    5    0        -3.974251      -108.1449       3.318406
    6    0        -0.207180        -5.6377       4.560053
    2    1      -460.384091    -12527.6885       0.329217
    3    1      -103.448928     -2814.9886       0.702515
    4    1       -20.075789      -546.2900       1.536198
    5    1        -2.189737       -59.5858       4.035315
    3    2       -81.364825     -2214.0495       0.755981
    4    2       -11.975168      -325.8609       1.868078
    5    2        -0.249072        -6.7776       4.504645
    4    3        -2.985533       -81.2405       3.198908

  Assembling full basis from fixed parts.
  | Species H :   atomic orbital   1 s accepted.
  | Species H :    hydro orbital   2 s accepted.
  | Species H :    hydro orbital   2 p accepted.
  | Species C :   atomic orbital   1 s accepted.
  | Species C :    hydro orbital   2 s accepted.
  | Species C :   atomic orbital   2 s accepted.
  | Species C :   atomic orbital   2 p accepted.
  | Species C :    hydro orbital   2 p accepted.
  | Species C :    hydro orbital   3 d accepted.
  | Species N :   atomic orbital   1 s accepted.
  | Species N :    hydro orbital   3 s accepted.
  | Species N :   atomic orbital   2 s accepted.
  | Species N :   atomic orbital   2 p accepted.
  | Species N :    hydro orbital   2 p accepted.
  | Species N :    hydro orbital   3 d accepted.
  | Species O :   atomic orbital   1 s accepted.
  | Species O :    hydro orbital   3 s accepted.
  | Species O :   atomic orbital   2 s accepted.
  | Species O :   atomic orbital   2 p accepted.
  | Species O :    hydro orbital   2 p accepted.
  | Species O :    hydro orbital   3 d accepted.
  | Species Au :   atomic orbital   1 s accepted.
  | Species Au :   atomic orbital   2 s accepted.
  | Species Au :   atomic orbital   3 s accepted.
  | Species Au :   atomic orbital   4 s accepted.
  | Species Au :   atomic orbital   5 s accepted.
  | Species Au :    ionic orbital   6 s accepted.
  | Species Au :   atomic orbital   6 s accepted.
  | Species Au :   atomic orbital   2 p accepted.
  | Species Au :   atomic orbital   3 p accepted.
  | Species Au :   atomic orbital   4 p accepted.
  | Species Au :   atomic orbital   5 p accepted.
  | Species Au :    ionic orbital   6 p accepted.
  | Species Au :   atomic orbital   3 d accepted.
  | Species Au :   atomic orbital   4 d accepted.
  | Species Au :   atomic orbital   5 d accepted.
  | Species Au :    hydro orbital   3 d accepted.
  | Species Au :   atomic orbital   4 f accepted.
  | Species Au :    hydro orbital   4 f accepted.
 
  Basis size parameters after reduction:
  | Total number of radial functions:       39
  | Total number of basis functions :     2173
 
  Per-task memory consumption for arrays in subroutine allocate_ext:
  |          14.911264MB.
  Testing on-site integration grid accuracy.
  |  Species  Function  <phi|h_atom|phi> (log., in eV)  <phi|h_atom|phi> (rad., in eV)
           1        1                 -6.4664147733                 -6.4652229287
           1        2                 13.7099062243                 13.7158503352
           1        3                 25.2661739479                 25.2663166526
           2        4               -273.3876219315               -273.3875919975
           2        5                -10.7204647108                -10.7200987593
           2        6                 17.5782951179                 17.5752355749
           2        7                 -5.2222267968                 -5.2237454457
           2        8                  8.6866956299                  8.6634852752
           2        9                 27.4984676176                 27.4985577282
           3       10               -384.8770852102               -384.8770238661
           3       11                 12.5754985571                 12.5755902269
           3       12                -15.7673946340                -15.7673131149
           3       13                 -7.0647024644                 -7.0651952861
           3       14                  8.8117910311                  8.7928686445
           3       15                 35.9641313273                 35.9643080892
           4       16               -515.0295626295               -515.0294562738
           4       17                 15.1698434419                 15.1699322204
           4       18                -21.6038822678                -21.6039118105
           4       19                 -9.0211123393                 -9.0212703513
           4       20                  8.3047696391                  8.2854840999
           4       21                 45.8428042125                 45.8427461222
           5       22             -88612.0014632773             -88611.6712034181 ***
           5       23             -14521.4877183143             -14521.4814000019
           5       24              -3380.5271185031              -3380.5267747562
           5       25               -730.4575387838               -730.4575126191
           5       26               -108.1448599552               -108.1448564322
           5       27                 -5.0942970293                 -5.0944290534
           5       28                  6.1115134680                  6.0788143741 ***
           5       29             -12527.6885190594             -12527.6885173588
           5       30              -2814.9885638790              -2814.9885483085
           5       31               -546.2900141438               -546.2900083823
           5       32                -59.5857773586                -59.5857755984
           5       33                  0.8801786283                  0.8779179064
           5       34              -2214.0495316651              -2214.0495265841
           5       35               -325.8609015442               -325.8608990421
           5       36                 -6.7779523966                 -6.7780549585
           5       37                  6.8774732661                  6.8534371039
           5       38                -81.2404736873                -81.2404731624
           5       39                 21.6950885227                 21.6950713512
 * Note: Onsite integrals marked "***" above are less accurate than
 * onsite_accuracy_threshold =    0.03000 eV. Usually, this is harmless.
 * However, one integral did have a negative value. This integral could be important.
 * When in doubt, tighten the "radial" and/or "radial_multiplier" flags to check.

  Preparing densities etc. for the partition functions (integrals / Hartree potential).

  Preparations completed.
  max(cpu_time)          :      0.386 s.
  Wall clock time (cpu1) :      0.387 s.
------------------------------------------------------------

------------------------------------------------------------
          Begin self-consistency loop: Initialization.

          Date     :  20221012, Time     :  132613.269
------------------------------------------------------------

  Initializing index lists of integration centers etc. from given atomic structure:
  | Number of centers in hartree potential         :        53
  | Number of centers in hartree multipole         :        53
  | Number of centers in electron density summation:        53
  | Number of centers in basis integrals           :        53
  | Number of centers in integrals                 :        53
  | Number of centers in hamiltonian               :        53
  Initializing relaxation algorithms.
  * Using 16 tasks for Scalapack Eigenvalue solver.
  Detailed listing of tasks and assigned k-points:
  (for non-periodic systems, the "k-point" denotes an internal label only)
   Task     0 k-point     1 on scc-gc4
   Task     1 k-point     1 on scc-gc4
   Task     2 k-point     1 on scc-gc4
   Task     3 k-point     1 on scc-gc4
   Task     4 k-point     1 on scc-gc4
   Task     5 k-point     1 on scc-gc4
   Task     6 k-point     1 on scc-gc4
   Task     7 k-point     1 on scc-gc4
   Task     8 k-point     1 on scc-gc4
   Task     9 k-point     1 on scc-gc4
   Task    10 k-point     1 on scc-gc4
   Task    11 k-point     1 on scc-gc4
   Task    12 k-point     1 on scc-gc4
   Task    13 k-point     1 on scc-gc4
   Task    14 k-point     1 on scc-gc4
   Task    15 k-point     1 on scc-gc4
  Tasks:    16 split into      4 X      4 BLACS grid
  Calculating block size based on n_basis =         2173  max_nprow =            4  max_npcol =            4
  ScaLAPACK block size set to:           16
  Allocating        2.367 MB for ovlp
  Allocating        2.367 MB for ham
  Allocating        2.367 MB for eigenvec
  Required Scalapack workspace - INTEGER:            1  REAL:             1
  Partitioning the integration grid into batches with parallel hashing+maxmin method.
  | Number of batches:     3507
  | Maximal batch size:     200
  | Minimal batch size:      50
  | Average batch size:     119.407
  | Standard deviation of batch sizes:      37.585

  Integration load balanced across    16 MPI tasks.
  Work distribution over tasks is as follows:
  Task     0 has      26165 integration points.
  Task     1 has      26142 integration points.
  Task     2 has      26304 integration points.
  Task     3 has      26180 integration points.
  Task     4 has      26129 integration points.
  Task     5 has      26176 integration points.
  Task     6 has      26289 integration points.
  Task     7 has      26199 integration points.
  Task     8 has      26150 integration points.
  Task     9 has      26151 integration points.
  Task    10 has      26142 integration points.
  Task    11 has      26128 integration points.
  Task    12 has      26160 integration points.
  Task    13 has      26165 integration points.
  Task    14 has      26125 integration points.
  Task    15 has      26157 integration points.
  Initializing partition tables, free-atom densities, potentials, etc. across the integration grid (initialize_grid_storage).
  | initialize_grid_storage: Actual outermost partition radius vs. multipole_radius_free
  | (-- VB: in principle, multipole_radius_free should be larger, hence this output)
  | Species        1: Confinement radius =              4.999999999999999 AA, multipole_radius_free =              5.054417573612229 AA.
  | Species        1: outer_partition_radius set to              5.054417573612229 AA .
  | Species        2: Confinement radius =              4.999999999999999 AA, multipole_radius_free =              5.019602836301480 AA.
  | Species        2: outer_partition_radius set to              5.019602836301480 AA .
  | Species        3: Confinement radius =              4.999999999999999 AA, multipole_radius_free =              5.043624274424571 AA.
  | Species        3: outer_partition_radius set to              5.043624274424571 AA .
  | Species        4: Confinement radius =              4.999999999999999 AA, multipole_radius_free =              5.048384829883283 AA.
  | Species        4: outer_partition_radius set to              5.048384829883283 AA .
  | Species        5: Confinement radius =              4.999999999999999 AA, multipole_radius_free =              5.028561921230412 AA.
  | Species        5: outer_partition_radius set to              5.028561921230412 AA .
  | Original list of interatomic distances with          53 x         53 entries is created.
  | Net number of integration points:   418762
  | of which are non-zero points    :   383451
  Renormalizing the initial density to the exact electron count on the 3D integration grid.
  | Initial density: Formal number of electrons (from input files) :    2904.0000000000
  | Integrated number of electrons on 3D grid     :    2903.9998877766
  | Charge integration error                      :      -0.0001122234
  | Normalization factor for density and gradient :       1.0000000386
  Obtaining max. number of non-zero basis functions in each batch (get_n_compute_maxes).
  | Maximal number of non-zero basis functions:      581 in task     0
  | Maximal number of non-zero basis functions:      610 in task     1
  | Maximal number of non-zero basis functions:      597 in task     2
  | Maximal number of non-zero basis functions:      584 in task     3
  | Maximal number of non-zero basis functions:      599 in task     4
  | Maximal number of non-zero basis functions:      584 in task     5
  | Maximal number of non-zero basis functions:      584 in task     6
  | Maximal number of non-zero basis functions:      583 in task     7
  | Maximal number of non-zero basis functions:      582 in task     8
  | Maximal number of non-zero basis functions:      586 in task     9
  | Maximal number of non-zero basis functions:      588 in task    10
  | Maximal number of non-zero basis functions:      584 in task    11
  | Maximal number of non-zero basis functions:      610 in task    12
  | Maximal number of non-zero basis functions:      593 in task    13
  | Maximal number of non-zero basis functions:      587 in task    14
  | Maximal number of non-zero basis functions:      593 in task    15
  Selecting the method for density update.
  Density matrix based charge density update selected.
  Scalapack and density-matrix based density update requested:
  Switching to packed matrix format "index" by default.
  Hamiltonian matrix size:
  | Size of matrix non-packed:               2362051
  | Size of matrix packed:          848706
  Allocating       31.535 MB for KS_eigenvector
  Integrating Hamiltonian matrix: batch-based integration.
  Time summed over all CPUs for integration: real work        7.515 s, elapsed        8.016 s
  Integrating overlap matrix.
  Time summed over all CPUs for integration: real work        4.136 s, elapsed        4.424 s
  Decreasing sparse matrix size:
   Tolerance:  9.999999824516700E-014
   Hamiltonian matrix
  | Array has   784388 nonzero elements out of   848706 elements
  | Sparsity factor is 0.076
   Overlap matrix
  | Array has   749332 nonzero elements out of   848706 elements
  | Sparsity factor is 0.117
  New size of hamiltonian matrix:      784446
  Deallocating overlap matrix.

  Updating Kohn-Sham eigenvalues and eigenvectors using ELSI and the ELPA eigensolver.
  ELPA settings:
  | ELPA solver          2
  | Time full => band           :     0.119 s
  | Time band => tridiagonal    :     0.041 s
  | Time solve tridiagonal      :     0.029 s
  Overlap matrix is nonsingular
  | Lowest eigenvalue of overlap  :  0.17E-02
  | Highest eigenvalue of overlap :  0.65E+01
  Finished singularity check of overlap matrix
  | Time :     0.192 s
  Finished Cholesky decomposition
  | Time :     0.059 s
  Finished transformation to standard eigenproblem
  | Time :     0.063 s
  Starting ELPA eigensolver
  | Time full => band           :     0.112 s
  | Time band => tridiagonal    :     0.040 s
  | Time solve tridiagonal      :     0.027 s
  | Time ev tridiagonal => band :     0.140 s
  | Time ev band => full        :     0.058 s
  Finished solving standard eigenproblem
  | Time :     0.378 s
  Finished back-transformation of eigenvectors
  | Time :     0.038 s

  Obtaining occupation numbers and chemical potential using ELSI.
  | Chemical potential (Fermi level):    -4.61424900eV
  Writing Kohn-Sham eigenvalues.

  State    Occupation    Eigenvalue [Ha]    Eigenvalue [eV]
      1       2.00000       -3256.415402       -88611.57160
      2       2.00000       -3256.415398       -88611.57148
      3       2.00000       -3256.415205       -88611.56623
      4       2.00000       -3256.415187       -88611.56576
      5       2.00000       -3256.415105       -88611.56351
      6       2.00000       -3256.415102       -88611.56344
      7       2.00000       -3256.414749       -88611.55382
      8       2.00000       -3256.414749       -88611.55382
      9       2.00000       -3256.414310       -88611.54187
     10       2.00000       -3256.414304       -88611.54171
     11       2.00000       -3256.414258       -88611.54047
     12       2.00000       -3256.414232       -88611.53976
     13       2.00000       -3256.414167       -88611.53800
     14       2.00000       -3256.414159       -88611.53777
     15       2.00000       -3256.414158       -88611.53773
     16       2.00000       -3256.414007       -88611.53364
     17       2.00000       -3256.413717       -88611.52575
     18       2.00000       -3256.413693       -88611.52509
     19       2.00000       -3256.413499       -88611.51982
     20       2.00000       -3256.413499       -88611.51982
     21       2.00000       -3256.413387       -88611.51675
     22       2.00000       -3256.413374       -88611.51640
     23       2.00000       -3256.413368       -88611.51626
     24       2.00000       -3256.413367       -88611.51623
     25       2.00000       -3256.413083       -88611.50848
     26       2.00000       -3256.413083       -88611.50848
     27       2.00000       -3256.413083       -88611.50848
     28       2.00000       -3256.413083       -88611.50848
     29       2.00000       -3256.413083       -88611.50848
     30       2.00000       -3256.413083       -88611.50848
     31       2.00000       -3256.413083       -88611.50848
     32       2.00000       -3256.413083       -88611.50848
     33       2.00000       -3256.413083       -88611.50848
     34       2.00000       -3256.413083       -88611.50848
     35       2.00000       -3256.412249       -88611.48581
     36       2.00000       -3256.412249       -88611.48581
     37       2.00000        -533.656694       -14521.53750
     38       2.00000        -533.656690       -14521.53738
     39       2.00000        -533.656496       -14521.53210
     40       2.00000        -533.656479       -14521.53163
     41       2.00000        -533.656396       -14521.52937
     42       2.00000        -533.656393       -14521.52931
     43       2.00000        -533.656039       -14521.51966
     44       2.00000        -533.656039       -14521.51966
     45       2.00000        -533.655597       -14521.50763
     46       2.00000        -533.655591       -14521.50747
     47       2.00000        -533.655545       -14521.50623
     48       2.00000        -533.655519       -14521.50552
     49       2.00000        -533.655454       -14521.50375
     50       2.00000        -533.655445       -14521.50352
     51       2.00000        -533.655443       -14521.50346
     52       2.00000        -533.655293       -14521.49936
     53       2.00000        -533.655003       -14521.49146
     54       2.00000        -533.654978       -14521.49080
     55       2.00000        -533.654784       -14521.48551
     56       2.00000        -533.654784       -14521.48551
     57       2.00000        -533.654670       -14521.48243
     58       2.00000        -533.654658       -14521.48208
     59       2.00000        -533.654652       -14521.48193
     60       2.00000        -533.654651       -14521.48190
     61       2.00000        -533.654366       -14521.47413
     62       2.00000        -533.654366       -14521.47413
     63       2.00000        -533.654365       -14521.47413
     64       2.00000        -533.654365       -14521.47413
     65       2.00000        -533.654365       -14521.47413
     66       2.00000        -533.654365       -14521.47413
     67       2.00000        -533.654365       -14521.47413
     68       2.00000        -533.654365       -14521.47413
     69       2.00000        -533.654365       -14521.47413
     70       2.00000        -533.654365       -14521.47413
     71       2.00000        -533.653529       -14521.45137
     72       2.00000        -533.653529       -14521.45137
     73       2.00000        -460.388483       -12527.80802
     74       2.00000        -460.388482       -12527.80799
     75       2.00000        -460.388479       -12527.80792
     76       2.00000        -460.388478       -12527.80790
     77       2.00000        -460.388477       -12527.80787
     78       2.00000        -460.388475       -12527.80780
     79       2.00000        -460.388285       -12527.80263
     80       2.00000        -460.388284       -12527.80262
     81       2.00000        -460.388280       -12527.80251
     82       2.00000        -460.388267       -12527.80216
     83       2.00000        -460.388267       -12527.80214
     84       2.00000        -460.388263       -12527.80204
     85       2.00000        -460.388184       -12527.79990
     86       2.00000        -460.388184       -12527.79989
     87       2.00000        -460.388182       -12527.79984
     88       2.00000        -460.388181       -12527.79982
     89       2.00000        -460.388180       -12527.79979
     90       2.00000        -460.388178       -12527.79972
     91       2.00000        -460.387827       -12527.79018
     92       2.00000        -460.387827       -12527.79018
     93       2.00000        -460.387827       -12527.79018
     94       2.00000        -460.387827       -12527.79018
     95       2.00000        -460.387824       -12527.79009
     96       2.00000        -460.387824       -12527.79009
     97       2.00000        -460.387388       -12527.77823
     98       2.00000        -460.387384       -12527.77812
     99       2.00000        -460.387382       -12527.77807
    100       2.00000        -460.387382       -12527.77806
    101       2.00000        -460.387378       -12527.77796
    102       2.00000        -460.387376       -12527.77790
    103       2.00000        -460.387337       -12527.77684
    104       2.00000        -460.387332       -12527.77671
    105       2.00000        -460.387330       -12527.77665
    106       2.00000        -460.387311       -12527.77613
    107       2.00000        -460.387306       -12527.77600
    108       2.00000        -460.387304       -12527.77594
    109       2.00000        -460.387246       -12527.77436
    110       2.00000        -460.387241       -12527.77424
    111       2.00000        -460.387239       -12527.77418
    112       2.00000        -460.387237       -12527.77412
    113       2.00000        -460.387237       -12527.77411
    114       2.00000        -460.387232       -12527.77400
    115       2.00000        -460.387230       -12527.77394
    116       2.00000        -460.387229       -12527.77390
    117       2.00000        -460.387228       -12527.77388
    118       2.00000        -460.387086       -12527.77001
    119       2.00000        -460.387078       -12527.76980
    120       2.00000        -460.387078       -12527.76979
    121       2.00000        -460.386791       -12527.76199
    122       2.00000        -460.386790       -12527.76197
    123       2.00000        -460.386790       -12527.76197
    124       2.00000        -460.386767       -12527.76132
    125       2.00000        -460.386766       -12527.76130
    126       2.00000        -460.386766       -12527.76130
    127       2.00000        -460.386572       -12527.75603
    128       2.00000        -460.386572       -12527.75603
    129       2.00000        -460.386572       -12527.75603
    130       2.00000        -460.386572       -12527.75603
    131       2.00000        -460.386572       -12527.75603
    132       2.00000        -460.386572       -12527.75603
    133       2.00000        -460.386460       -12527.75299
    134       2.00000        -460.386459       -12527.75295
    135       2.00000        -460.386457       -12527.75289
    136       2.00000        -460.386447       -12527.75263
    137       2.00000        -460.386446       -12527.75260
    138       2.00000        -460.386444       -12527.75254
    139       2.00000        -460.386442       -12527.75249
    140       2.00000        -460.386441       -12527.75246
    141       2.00000        -460.386441       -12527.75246
    142       2.00000        -460.386440       -12527.75243
    143       2.00000        -460.386439       -12527.75240
    144       2.00000        -460.386438       -12527.75237
    145       2.00000        -460.386155       -12527.74467
    146       2.00000        -460.386155       -12527.74467
    147       2.00000        -460.386155       -12527.74467
    148       2.00000        -460.386155       -12527.74467
    149       2.00000        -460.386155       -12527.74467
    150       2.00000        -460.386155       -12527.74467
    151       2.00000        -460.386155       -12527.74467
    152       2.00000        -460.386155       -12527.74467
    153       2.00000        -460.386155       -12527.74467
    154       2.00000        -460.386155       -12527.74467
    155       2.00000        -460.386155       -12527.74467
    156       2.00000        -460.386155       -12527.74467
    157       2.00000        -460.386155       -12527.74467
    158       2.00000        -460.386155       -12527.74467
    159       2.00000        -460.386155       -12527.74467
    160       2.00000        -460.386155       -12527.74467
    161       2.00000        -460.386155       -12527.74467
    162       2.00000        -460.386155       -12527.74467
    163       2.00000        -460.386155       -12527.74467
    164       2.00000        -460.386155       -12527.74467
    165       2.00000        -460.386152       -12527.74461
    166       2.00000        -460.386152       -12527.74461
    167       2.00000        -460.386152       -12527.74461
    168       2.00000        -460.386152       -12527.74461
    169       2.00000        -460.386152       -12527.74461
    170       2.00000        -460.386152       -12527.74461
    171       2.00000        -460.386152       -12527.74461
    172       2.00000        -460.386152       -12527.74461
    173       2.00000        -460.386152       -12527.74461
    174       2.00000        -460.386152       -12527.74461
    175       2.00000        -460.385320       -12527.72196
    176       2.00000        -460.385320       -12527.72196
    177       2.00000        -460.385317       -12527.72187
    178       2.00000        -460.385317       -12527.72187
    179       2.00000        -460.385317       -12527.72187
    180       2.00000        -460.385317       -12527.72187
    181       2.00000        -124.236037        -3380.63457
    182       2.00000        -124.236032        -3380.63444
    183       2.00000        -124.235832        -3380.62900
    184       2.00000        -124.235815        -3380.62852
    185       2.00000        -124.235730        -3380.62623
    186       2.00000        -124.235728        -3380.62616
    187       2.00000        -124.235367        -3380.61635
    188       2.00000        -124.235367        -3380.61635
    189       2.00000        -124.234910        -3380.60389
    190       2.00000        -124.234904        -3380.60373
    191       2.00000        -124.234857        -3380.60246
    192       2.00000        -124.234830        -3380.60173
    193       2.00000        -124.234764        -3380.59994
    194       2.00000        -124.234756        -3380.59970
    195       2.00000        -124.234748        -3380.59950
    196       2.00000        -124.234595        -3380.59533
    197       2.00000        -124.234305        -3380.58745
    198       2.00000        -124.234280        -3380.58677
    199       2.00000        -124.234083        -3380.58139
    200       2.00000        -124.234083        -3380.58139
    201       2.00000        -124.233965        -3380.57818
    202       2.00000        -124.233952        -3380.57783
    203       2.00000        -124.233946        -3380.57768
    204       2.00000        -124.233945        -3380.57765
    205       2.00000        -124.233655        -3380.56974
    206       2.00000        -124.233655        -3380.56974
    207       2.00000        -124.233655        -3380.56974
    208       2.00000        -124.233655        -3380.56974
    209       2.00000        -124.233655        -3380.56974
    210       2.00000        -124.233655        -3380.56974
    211       2.00000        -124.233655        -3380.56974
    212       2.00000        -124.233655        -3380.56974
    213       2.00000        -124.233655        -3380.56974
    214       2.00000        -124.233655        -3380.56974
    215       2.00000        -124.232798        -3380.54644
    216       2.00000        -124.232798        -3380.54644
    217       2.00000        -103.453468        -2815.11209
    218       2.00000        -103.453464        -2815.11198
    219       2.00000        -103.453459        -2815.11185
    220       2.00000        -103.453454        -2815.11171
    221       2.00000        -103.453438        -2815.11128
    222       2.00000        -103.453434        -2815.11116
    223       2.00000        -103.453264        -2815.10656
    224       2.00000        -103.453259        -2815.10640
    225       2.00000        -103.453246        -2815.10607
    226       2.00000        -103.453241        -2815.10592
    227       2.00000        -103.453228        -2815.10556
    228       2.00000        -103.453210        -2815.10508
    229       2.00000        -103.453161        -2815.10373
    230       2.00000        -103.453159        -2815.10368
    231       2.00000        -103.453157        -2815.10364
    232       2.00000        -103.453154        -2815.10356
    233       2.00000        -103.453127        -2815.10281
    234       2.00000        -103.453125        -2815.10275
    235       2.00000        -103.452794        -2815.09374
    236       2.00000        -103.452794        -2815.09374
    237       2.00000        -103.452794        -2815.09374
    238       2.00000        -103.452794        -2815.09374
    239       2.00000        -103.452767        -2815.09303
    240       2.00000        -103.452767        -2815.09303
[...]
  | Density mixing                             :        0.006 s           0.007 s
  | Hartree multipole update                   :        0.009 s           0.009 s
  | Hartree multipole summation                :        1.261 s           1.264 s
  | Integration                                :        0.486 s           0.487 s
  | Solution of K.-S. eqns.                    :        0.551 s           0.553 s
  | Total energy evaluation                    :        0.002 s           0.002 s

  Partial memory accounting:
  | Current value for overall tracked memory usage on task 0  :          48.055 MB
  | Peak value for overall tracked memory usage on task 0     :          70.552 MB after allocating wave_pulay
  | Largest tracked array allocation on task 0 so far         :          31.535 MB  when allocating +KS_eigenvector
  Note:  These values currently only include a subset of arrays which are explicitly tracked.
  The "true" memory usage will be greater.
------------------------------------------------------------
  |------------------------------------------
  | Final ELSI Output
  |------------------------------------------
  | Number of basis functions :         2173
  | Number of electrons       :       2904.0
  | Number of spins           :            1
  | Number of k-points        :            1
  | Number of states          :         1814
  | Solver                    :         ELPA
  | Parallel mode             :   MULTI_PROC
  | Matrix format             :  BLACS_DENSE
  | Matrix sparsity           :        0.668
  |------------------------------------------
  | ELSI Project (c)  elsi-interchange.org
  |------------------------------------------

  Energy and forces in a compact form:
  | Total energy uncorrected      :         -0.192932638693423E+08 eV
  | Total energy corrected        :         -0.192932638693423E+08 eV  <-- do not rely on this value for anything but (periodic) metals
  | Electronic free energy        :         -0.192932638693423E+08 eV
  Total atomic forces (unitary forces were cleaned, then relaxation constraints were applied) [eV/Ang]:
  |   1          0.279699586000841E-02         -0.509074474587592E-02          0.213881010975579E-02
  |   2         -0.518550864098216E-03          0.761797493452172E-03          0.384772559190776E-02
  |   3          0.119837229563232E-02         -0.281513902347995E-02         -0.202959480013231E-02
  |   4          0.124608670237482E-02         -0.111495304387937E-02         -0.154764510677443E-02
  |   5          0.586697150667995E-03          0.448157140251321E-03          0.352977642838334E-03
  |   6          0.144046927065527E-02         -0.113346824645630E-02         -0.548515651372829E-03
  |   7         -0.592846301377531E-03          0.140862486058549E-02         -0.374543907262494E-04
  |   8          0.323997066397095E-04         -0.104893243835329E-02          0.256809798507213E-02
  |   9         -0.249560328673211E-02         -0.110790058284190E-02          0.400324152516666E-02
  |  10          0.231121322182643E-02         -0.388934692541268E-02          0.716249344750145E-03
  |  11          0.265639776252248E-02         -0.164316810691340E-02         -0.806528384816938E-02
  |  12         -0.462684285285998E-02          0.170203880129948E-03          0.454339013939150E-02
  |  13         -0.107879273823237E-02          0.685109817967009E-03         -0.172220670660182E-03
  |  14         -0.508023121308194E-02          0.388948552255404E-02          0.275782623048421E-02
  |  15         -0.350259293205400E-03         -0.238755270190964E-02          0.424449497333635E-02
  |  16         -0.244415543313858E-03         -0.171044840845427E-02          0.244806939586824E-02
  |  17          0.129399736629858E-02         -0.808514885430660E-04          0.614320546205951E-03
  |  18          0.584510771746082E-03         -0.352911009780740E-02          0.946149787508172E-02
  |  19          0.315966971989731E-03          0.577105409463496E-02         -0.373192441285503E-03
  |  20          0.502856175019321E-02         -0.219081740209107E-02         -0.267649975829470E-02
  |  21         -0.319100081999326E-02         -0.518469001817235E-02         -0.704686870538371E-02
  |  22          0.000000000000000E+00          0.000000000000000E+00          0.000000000000000E+00
  |  23          0.000000000000000E+00          0.000000000000000E+00          0.000000000000000E+00
  |  24          0.000000000000000E+00          0.000000000000000E+00          0.000000000000000E+00
  |  25          0.000000000000000E+00          0.000000000000000E+00          0.000000000000000E+00
  |  26          0.000000000000000E+00          0.000000000000000E+00          0.000000000000000E+00
  |  27          0.000000000000000E+00          0.000000000000000E+00          0.000000000000000E+00
  |  28          0.000000000000000E+00          0.000000000000000E+00          0.000000000000000E+00
  |  29          0.000000000000000E+00          0.000000000000000E+00          0.000000000000000E+00
  |  30          0.000000000000000E+00          0.000000000000000E+00          0.000000000000000E+00
  |  31          0.000000000000000E+00          0.000000000000000E+00          0.000000000000000E+00
  |  32          0.000000000000000E+00          0.000000000000000E+00          0.000000000000000E+00
  |  33          0.000000000000000E+00          0.000000000000000E+00          0.000000000000000E+00
  |  34          0.000000000000000E+00          0.000000000000000E+00          0.000000000000000E+00
  |  35          0.000000000000000E+00          0.000000000000000E+00          0.000000000000000E+00
  |  36         -0.853343711300334E-03          0.518533455693885E-03          0.232735346610013E-02
  |  37          0.250899902341167E-03         -0.256303177092041E-02         -0.115564642573174E-02
  |  38          0.234325733711501E-03          0.126324813442398E-02         -0.248023132254034E-02
  |  39         -0.335354186140404E-02         -0.383622438150096E-03         -0.325266239200168E-02
  |  40          0.000000000000000E+00          0.000000000000000E+00          0.000000000000000E+00
  |  41          0.000000000000000E+00          0.000000000000000E+00          0.000000000000000E+00
  |  42          0.000000000000000E+00          0.000000000000000E+00          0.000000000000000E+00
  |  43          0.000000000000000E+00          0.000000000000000E+00          0.000000000000000E+00
  |  44          0.000000000000000E+00          0.000000000000000E+00          0.000000000000000E+00
  |  45          0.000000000000000E+00          0.000000000000000E+00          0.000000000000000E+00
  |  46          0.000000000000000E+00          0.000000000000000E+00          0.000000000000000E+00
  |  47          0.000000000000000E+00          0.000000000000000E+00          0.000000000000000E+00
  |  48          0.000000000000000E+00          0.000000000000000E+00          0.000000000000000E+00
  |  49          0.000000000000000E+00          0.000000000000000E+00          0.000000000000000E+00
  |  50          0.000000000000000E+00          0.000000000000000E+00          0.000000000000000E+00
  |  51          0.000000000000000E+00          0.000000000000000E+00          0.000000000000000E+00
  |  52          0.000000000000000E+00          0.000000000000000E+00          0.000000000000000E+00
  |  53          0.000000000000000E+00          0.000000000000000E+00          0.000000000000000E+00

  ------------------------------------ 
  Start decomposition of the XC Energy 
  ------------------------------------ 
  X and C from original XC functional choice 
  Hartree-Fock Energy :          0.000000000 Ha              0.000000000 eV
  X Energy            :     -13119.178144112 Ha        -356991.000803428 eV
  C Energy            :       -176.428688096 Ha          -4800.868868605 eV
  Total XC Energy     :     -13295.606832208 Ha        -361791.869672034 eV
  ------------------------------------ 
  LDA X and C from self-consistent density 
  X Energy LDA        :     -12590.136797603 Ha        -342595.053307178 eV
  C Energy LDA        :       -301.761323514 Ha          -8211.343401381 eV
  ------------------------------------ 
  End decomposition of the XC Energy 
  ------------------------------------ 

------------------------------------------------------------
  Relaxation / MD: End force evaluation.       :  max(cpu_time)    wall_clock(cpu1)
  | Time for this force evaluation             :       24.566 s          24.632 s

------------------------------------------------------------
  Geometry optimization: Attempting to predict improved coordinates.

  Net remaining forces (excluding translations, rotations) in present geometry:
  Maximum force component is  0.946150E-02 eV/A.
  Present geometry is converged.

------------------------------------------------------------
  Final atomic structure:
                         x [A]             y [A]             z [A]
            atom        -1.86825372        1.92670011       11.59142002  N
            atom        -2.56796457        3.04413015       11.78236747  C
            atom        -1.63691743        1.82129605       10.22211215  C
            atom        -2.21666923        2.90430322        9.59760422  C
            atom        -2.79792858        3.65917656       10.59564779  N
            atom        -2.90234385        3.42344799       12.74193143  H
            atom        -2.25618783        3.19077740        8.55291888  H
            atom        -0.90742621        0.69095730        9.56578043  C
            atom        -0.03231593        0.41353258       10.17535000  H
            atom        -0.53320156        1.03985376        8.59015168  H
            atom        -1.79664953       -0.53872221        9.33135960  C
            atom        -2.01307988       -1.03454405       10.29155817  H
            atom        -2.75108091       -0.23188031        8.88290737  H
            atom        -1.14568849       -1.48879264        8.38269097  N
            atom        -0.19834495       -1.71271189        8.70514029  H
            atom        -1.65936245       -2.37490809        8.38449123  H
            atom        -3.29768567        4.53496335       10.47084177  H
            atom        -1.04073166       -0.94653820        6.15321747  Au
            atom        -0.96892959        1.00814027        4.26351477  Au
            atom         0.90060017       -1.25520755        4.17580384  Au
            atom        -1.93552742       -1.76191462        3.70558483  Au
            atom        -0.98364858        2.90868289        2.23397374  Au
            atom         0.89728549        0.72320790        2.19342713  Au
            atom         2.77821955       -1.46226708        2.15288050  Au
            atom        -1.90122553        0.22622760        1.70639062  Au
            atom        -0.02029146       -1.95924740        1.66584399  Au
            atom        -2.81880248       -2.45622772        1.17880748  Au
            atom         0.91757695        2.68245530        0.07758314  Au
            atom         2.79851101        0.49698031        0.03703651  Au
            atom        -1.88093406        2.18547499       -0.40945337  Au
            atom         0.00000000        0.00000000       -0.45000000  Au
            atom         1.88093406       -2.18547499       -0.49054662  Au
            atom        -2.79851101       -0.49698032       -0.93703650  Au
            atom        -0.91757696       -2.68245530       -0.97758313  Au
            atom        -3.78215957        2.41170258        1.74693724  Au
            atom        -1.27047929        0.81253357       13.43049965  Au
            atom        -0.20308354       -0.93250044       15.18270480  Au
            atom         0.14476311        1.94937112       15.55454823  Au
            atom        -2.53029248        0.79109064       15.88516345  Au
            atom         0.80067538       -2.72226339       17.08960063  Au
            atom         1.18422876        0.11978134       17.39213394  Au
            atom         1.56778214        2.96182608       17.69466725  Au
            atom        -1.43900279       -1.02624961       17.74016710  Au
            atom        -1.05544942        1.81579512       18.04270041  Au
            atom        -3.67868099        0.66976417       18.39073358  Au
            atom         2.23967818       -1.69601378       19.36818365  Au
            atom         2.62323157        1.14603095       19.67071695  Au
            atom        -0.38355337       -2.84204474       19.71621680  Au
            atom         0.00000000        0.00000000       20.01875011  Au
            atom         0.38355338        2.84204474       20.32128342  Au
            atom        -2.62323155       -1.14603095       20.36678328  Au
            atom        -2.23967818        1.69601379       20.66931659  Au
            atom        -1.82255617       -3.86829434       17.43763380  Au
------------------------------------------------------------

------------------------------------------------------------------------------
  Final output of selected total energy values:

  The following output summarizes some interesting total energy values
  at the end of a run (AFTER all relaxation, molecular dynamics, etc.).

  | Total energy of the DFT / Hartree-Fock s.c.f. calculation      :      -19293263.869342320 eV
  | Final zero-broadening corrected energy (caution - metals only) :      -19293263.869342320 eV
  | For reference only, the value of 1 Hartree used in FHI-aims is :             27.211384500 eV

  Before relying on these values, please be sure to understand exactly which
  total energy value is referred to by a given number. Different objects may
  all carry the same name 'total energy'. Definitions:

  Total energy of the DFT / Hartree-Fock s.c.f. calculation:
  | Note that this energy does not include ANY quantities calculated after the
  | s.c.f. cycle, in particular not ANY RPA, MP2, etc. many-body perturbation terms.

  Final zero-broadening corrected energy:
  | For metallic systems only, a broadening of the occupation numbers at the Fermi
  | level can be extrapolated back to zero broadening by an electron-gas inspired
  | formula. For all systems that are not real metals, this value can be
  | meaningless and should be avoided.

------------------------------------------------------------------------------
  Methods described in the following list of references were used in this FHI-aims run.
  If you publish the results, please make sure to cite these reference if they apply.
  FHI-aims is an academic code, and for our developers (often, Ph.D. students
  and postdocs), scientific credit in the community is essential.
  Thank you for helping us!

  For any use of FHI-aims, please cite:

    Volker Blum, Ralf Gehrke, Felix Hanke, Paula Havu, Ville Havu,
    Xinguo Ren, Karsten Reuter, and Matthias Scheffler
    'Ab initio molecular simulations with numeric atom-centered orbitals'
    Computer Physics Communications 180, 2175-2196 (2009)
    http://dx.doi.org/10.1016/j.cpc.2009.06.022


  The scalable eigensolver library ELPA was used in your run.
  ELPA is essential especially for large systems on hundreds or thousands of CPUs.
  For ELPA, please cite:

    Andreas Marek, Volker Blum, Rainer Johanni, Ville Havu, Bruno Lang,
    Thomas Auckenthaler, Alexander Heinecke, Hans-Joachim Bungartz, and Hermann Lederer,
    'The ELPA Library - Scalable Parallel Eigenvalue Solutions
    for Electronic Structure Theory and Computational Science'
    The Journal of Physics: Condensed Matter 26, 213201 (2014).
    http://dx.doi.org/10.1088/0953-8984/26/21/213201


  The ELSI infrastructure was used in your run to solve the Kohn-Sham electronic structure.
  Please check out http://elsi-interchange.org to learn more.
  If scalability is important for your project, please acknowledge ELSI by citing:

    V. W-z. Yu, F. Corsetti, A. Garcia, W. P. Huhn, M. Jacquelin, W. Jia,
    B. Lange, L. Lin, J. Lu, W. Mi, A. Seifitokaldani, A. Vazquez-Mayagoitia,
    C. Yang, H. Yang, and V. Blum
    'ELSI: A unified software interface for Kohn-Sham electronic structure solvers'
    Computer Physics Communications 222, 267-285 (2018).
    http://dx.doi.org/10.1016/j.cpc.2017.09.007


  For the real-space grid partitioning and parallelization used in this calculation, please cite:

    Ville Havu, Volker Blum, Paula Havu, and Matthias Scheffler,
    'Efficient O(N) integration for all-electron electronic structure calculation'
    'using numerically tabulated basis functions'
    Journal of Computational Physics 228, 8367-8379 (2009).
    http://dx.doi.org/10.1016/j.jcp.2009.08.008

  Of course, there are many other important community references, e.g., those cited in the
  above references. Our list is limited to references that describe implementations in the
  FHI-aims code. The reason is purely practical (length of this list) - please credit others as well.

 * A warning was issued further up regarding the accuracy of onsite integrals.
   An integral with a negative eigenvalue was among the flagged integrals.
   In most standard situations, this warning is probably harmless.
   If needed, this can be verified by adjusting the radial_multiplier flag.

------------------------------------------------------------
          Leaving FHI-aims.
          Date     :  20221012, Time     :  133113.710

          Computational steps:
          | Number of self-consistency cycles          :           97
          | Number of SCF (re)initializations          :            9
          | Number of relaxation steps                 :            8

          Detailed time accounting                     :  max(cpu_time)    wall_clock(cpu1)
          | Total time                                 :      300.152 s         300.911 s
          | Preparation time                           :        0.386 s           0.387 s
          | Boundary condition initalization           :        0.122 s           0.080 s
          | Grid partitioning                          :        1.787 s           1.788 s
          | Preloading free-atom quantities on grid    :        1.646 s           1.648 s
          | Free-atom superposition energy             :        0.322 s           0.324 s
          | Total time for integrations                :       52.622 s          52.746 s
          | Total time for solution of K.-S. equations :       55.756 s          55.889 s
          | Total time for EV reorthonormalization     :        2.131 s           2.129 s
          | Total time for density & force components  :      145.899 s         146.234 s
          | Total time for mixing                      :        0.529 s           0.537 s
          | Total time for Hartree multipole update    :        0.760 s           0.759 s
          | Total time for Hartree multipole sum       :       37.187 s          37.280 s
          | Total time for total energy evaluation     :        0.026 s           0.044 s
          | Total time for scaled ZORA corrections     :        0.000 s           0.000 s

          Partial memory accounting:
          | Residual value for overall tracked memory usage across tasks :           0.000 MB (should be 0.000 MB)
          | Peak values for overall tracked memory usage (after allocating wave_pulay):
          |   Minimum:       69.930 MB (on task 16)
          |   Maximum:       70.638 MB (on task  8)
          |   Average:       70.357 MB
          | Largest tracked array allocation (+KS_eigenvector):
          |   Minimum:       31.535 MB (on task  1)
          |   Maximum:       31.535 MB (on task  1)
          |   Average:       31.535 MB
          Note:  These values currently only include a subset of arrays which are explicitly tracked.
          The "true" memory usage will be greater.

          Have a nice day.
------------------------------------------------------------
