  MPI-parallelism will be employed.
------------------------------------------------------------
          Invoking FHI-aims ...
          Version 171221_1
          Compiled on 2020/07/14 at 14:43:00 on host scc1.

          When using FHI-aims, please cite the following reference:

          Volker Blum, Ralf Gehrke, Felix Hanke, Paula Havu,
          Ville Havu, Xinguo Ren, Karsten Reuter, and Matthias Scheffler,
          'Ab Initio Molecular Simulations with Numeric Atom-Centered Orbitals',
          Computer Physics Communications 180, 2175-2196 (2009)

          For any questions about FHI-aims, please visit the aimsclub website
          with its forums and wiki. Contributions to both the forums and the
          wiki are warmly encouraged - they are for you, and everyone is welcome there.

------------------------------------------------------------



  Date     :  20221012, Time     :  123628.846
  Time zero on CPU 1             :   0.662850000000000E-01  s.
  Internal wall clock time zero  :           434810188.846  s.

  FHI-aims created a unique identifier for this run for later identification
  aims_uuid : C28291E1-CCB4-4AE7-A3B0-C4394C6EBEF3

  Using       16 parallel tasks.
  Task        0 on host scc-gc4 reporting.
  Task        1 on host scc-gc4 reporting.
  Task        2 on host scc-gc4 reporting.
  Task        3 on host scc-gc4 reporting.
  Task        4 on host scc-gc4 reporting.
  Task        5 on host scc-gc4 reporting.
  Task        6 on host scc-gc4 reporting.
  Task        7 on host scc-gc4 reporting.
  Task        8 on host scc-gc4 reporting.
  Task        9 on host scc-gc4 reporting.
  Task       10 on host scc-gc4 reporting.
  Task       11 on host scc-gc4 reporting.
  Task       12 on host scc-gc4 reporting.
  Task       13 on host scc-gc4 reporting.
  Task       14 on host scc-gc4 reporting.
  Task       15 on host scc-gc4 reporting.

  Performing system and environment tests:
  | Environment variable OMP_NUM_THREADS correctly set to 1.
  | Stacksize not measured: no C compiler
  | Checking for scalapack...
  | Testing pdtran()...
  | All pdtran() tests passed.

  Obtaining array dimensions for all initial allocations:
  
  -----------------------------------------------------------------------
  Parsing control.in (first pass over file, find array dimensions only).
  The contents of control.in will be repeated verbatim below
  unless switched off by setting 'verbatim_writeout .false.' .
  in the first line of control.in .
  -----------------------------------------------------------------------
  
  ##################################################
  #
  #  input file : OMepyz
  #
  ##################################################
  #
  #  Physical model
  #
    xc                 pbe
    spin               none
    charge             0
  #  KS_method	     lapack_fast
  #
  #  SCF convergence
  #
    occupation_type    gaussian 0.01
    mixer              pulay
      n_max_pulay        10
      charge_mix_param   0.2
    sc_accuracy_rho    1E-4
    sc_accuracy_eev    1E-2
    sc_accuracy_etot   1E-6
  # sc_accuracy_forces 1E-4
    sc_iter_limit      500
  #
  #  Relaxation
  #
    relax_geometry   bfgs 1.e-2
  #
  
  #  output an overlap matrix & wave functions
  #  to enable a post-processor transport calculation :
  #   output aitranss
  
  #  to enable restart of the calculation
  #   restart aims.restart
  
  #  scalar-relativistic treatment
     relativistic atomic_zora scalar
  #################################################################################
  #
  #  FHI-aims code project
  #  VB, Fritz-Haber Institut, 2009
  #
  #  Suggested "light" defaults for H atom (to be pasted into control.in file)
  #  Be sure to double-check any results obtained with these settings for post-processing,
  #  e.g., with the "tight" defaults and larger basis sets.
  #
  ################################################################################
    species        H
  #     global species definitions
      nucleus             1
      mass                1.00794
  #
      l_hartree           4
  #
      cut_pot             3.5  1.5  1.0
      basis_dep_cutoff    1e-4
  #
      radial_base         24 5.0
      radial_multiplier   1
      angular_grids       specified
        division   0.2421   50
        division   0.3822  110
        division   0.4799  194
        division   0.5341  302
  #      division   0.5626  434
  #      division   0.5922  590
  #      division   0.6542  770
  #      division   0.6868 1202
  #      outer_grid  770
        outer_grid  302
  ################################################################################
  #
  #  Definition of "minimal" basis
  #
  ################################################################################
  #     valence basis states
      valence      1  s   1.
  #     ion occupancy
      ion_occ      1  s   0.5
  ################################################################################
  #
  #  Suggested additional basis functions. For production calculations,
  #  uncomment them one after another (the most important basis functions are
  #  listed first).
  #
  #  Basis constructed for dimers: 0.5 A, 0.7 A, 1.0 A, 1.5 A, 2.5 A
  #
  ################################################################################
  #  "First tier" - improvements: -1014.90 meV to -62.69 meV
       hydro 2 s 2.1
       hydro 2 p 3.5
  #  "Second tier" - improvements: -12.89 meV to -1.83 meV
  #     hydro 1 s 0.85
  #     hydro 2 p 3.7
  #     hydro 2 s 1.2
  #     hydro 3 d 7
  #  "Third tier" - improvements: -0.25 meV to -0.12 meV
  #     hydro 4 f 11.2
  #     hydro 3 p 4.8
  #     hydro 4 d 9
  #     hydro 3 s 3.2
  ################################################################################
  #
  #  FHI-aims code project
  #  VB, Fritz-Haber Institut, 2009
  #
  #  Suggested "light" defaults for C atom (to be pasted into control.in file)
  #  Be sure to double-check any results obtained with these settings for post-processing,
  #  e.g., with the "tight" defaults and larger basis sets.
  #
  ################################################################################
    species        C
  #     global species definitions
      nucleus             6
      mass                12.0107
  #
      l_hartree           4
  #
      cut_pot             3.5  1.5  1.0
      basis_dep_cutoff    1e-4
  #
      radial_base         34 5.0
      radial_multiplier   1
      angular_grids specified
        division   0.3326   50
        division   0.5710  110
        division   0.7727  194
        division   0.8772  302
  #      division   0.9334  434
  #      division   0.9625  590
  #      division   0.9924  770
  #      division   1.0230  974
  #      division   1.4589 1202
  #     outer_grid  974
       outer_grid 302
  ################################################################################
  #
  #  Definition of "minimal" basis
  #
  ################################################################################
  #     valence basis states
      valence      2  s   2.
      valence      2  p   2.
  #     ion occupancy
      ion_occ      2  s   1.
      ion_occ      2  p   1.
  ################################################################################
  #
  #  Suggested additional basis functions. For production calculations,
  #  uncomment them one after another (the most important basis functions are
  #  listed first).
  #
  #  Constructed for dimers: 1.0 A, 1.25 A, 1.5 A, 2.0 A, 3.0 A
  #
  ################################################################################
  #  "First tier" - improvements: -1214.57 meV to -155.61 meV
       hydro 2 p 1.7
       hydro 3 d 6
       hydro 2 s 4.9
  #  "Second tier" - improvements: -67.75 meV to -5.23 meV
  #     hydro 4 f 9.8
  #     hydro 3 p 5.2
  #     hydro 3 s 4.3
  #     hydro 5 g 14.4
  #     hydro 3 d 6.2
  #  "Third tier" - improvements: -2.43 meV to -0.60 meV
  #     hydro 2 p 5.6
  #     hydro 2 s 1.4
  #     hydro 3 d 4.9
  #     hydro 4 f 11.2
  #  "Fourth tier" - improvements: -0.39 meV to -0.18 meV
  #     hydro 2 p 2.1
  #     hydro 5 g 16.4
  #     hydro 4 d 13.2
  #     hydro 3 s 13.6
  #     hydro 4 f 17.6
  #  Further basis functions - improvements: -0.08 meV and below
  #     hydro 3 s 2
  #     hydro 3 p 6
  #     hydro 4 d 20
  ################################################################################
  #
  #  FHI-aims code project
  #  VB, Fritz-Haber Institut, 2009
  #
  #  Suggested "light" defaults for N atom (to be pasted into control.in file)
  #  Be sure to double-check any results obtained with these settings for post-processing,
  #  e.g., with the "tight" defaults and larger basis sets.
  #
  ################################################################################
    species        N
  #     global species definitions
      nucleus             7
      mass                14.0067
  #
      l_hartree           4
  #
      cut_pot             3.5  1.5  1.0
      basis_dep_cutoff    1e-4
  #
      radial_base         35 5.0
      radial_multiplier   1
      angular_grids       specified
        division   0.2599   50
        division   0.4601  110
        division   0.5885  194
        division   0.6503  302
  #      division   0.6939  434
  #      division   0.7396  590
  #      division   0.7632  770
  #      division   0.8122  974
  #      division   1.1604 1202
  #      outer_grid  974
        outer_grid  302
  ################################################################################
  #
  #  Definition of "minimal" basis
  #
  ################################################################################
  #     valence basis states
      valence      2  s   2.
      valence      2  p   3.
  #     ion occupancy
      ion_occ      2  s   1.
      ion_occ      2  p   2.
  ################################################################################
  #
  #  Suggested additional basis functions. For production calculations,
  #  uncomment them one after another (the most important basis functions are
  #  listed first).
  #
  #  Constructed for dimers: 1.0 A, 1.1 A, 1.5 A, 2.0 A, 3.0 A
  #
  ################################################################################
  #  "First tier" - improvements: -1193.42 meV to -220.60 meV
       hydro 2 p 1.8
       hydro 3 d 6.8
       hydro 3 s 5.8
  #  "Second tier" - improvements: -80.21 meV to -6.86 meV
  #     hydro 4 f 10.8
  #     hydro 3 p 5.8
  #     hydro 1 s 0.8
  #     hydro 5 g 16
  #     hydro 3 d 4.9
  #  "Third tier" - improvements: -4.29 meV to -0.53 meV
  #     hydro 3 s 16
  #     ionic 2 p auto
  #     hydro 3 d 6.6
  #     hydro 4 f 11.6
  #  "Fourth tier" - improvements: -0.75 meV to -0.25 meV
  #     hydro 2 p 4.5
  #     hydro 2 s 2.4
  #     hydro 5 g 14.4
  #     hydro 4 d 14.4
  #     hydro 4 f 16.8
  # Further basis functions - -0.21 meV and below
  #     hydro 3 p 14.8
  #     hydro 3 s 4.4
  #     hydro 3 d 19.6
  #     hydro 5 g 12.8
  ################################################################################
  #
  #  FHI-aims code project
  #  VB, Fritz-Haber Institut, 2009
  #
  #  Suggested "light" defaults for O atom (to be pasted into control.in file)
  #  Be sure to double-check any results obtained with these settings for post-processing,
  #  e.g., with the "tight" defaults and larger basis sets.
  #
  ################################################################################
    species        O
  #     global species definitions
      nucleus             8
      mass                15.9994
  #
      l_hartree           4
  #
      cut_pot             3.5  1.5  1.0
      basis_dep_cutoff    1e-4
  #
      radial_base         36 5.0
      radial_multiplier   1
       angular_grids specified
        division   0.2659   50
        division   0.4451  110
        division   0.6052  194
        division   0.7543  302
  #      division   0.8014  434
  #      division   0.8507  590
  #      division   0.8762  770
  #      division   0.9023  974
  #      division   1.2339 1202
  #      outer_grid 974
        outer_grid 302
  ################################################################################
  #
  #  Definition of "minimal" basis
  #
  ################################################################################
  #     valence basis states
      valence      2  s   2.
      valence      2  p   4.
  #     ion occupancy
      ion_occ      2  s   1.
      ion_occ      2  p   3.
  ################################################################################
  #
  #  Suggested additional basis functions. For production calculations,
  #  uncomment them one after another (the most important basis functions are
  #  listed first).
  #
  #  Constructed for dimers: 1.0 A, 1.208 A, 1.5 A, 2.0 A, 3.0 A
  #
  ################################################################################
  #  "First tier" - improvements: -699.05 meV to -159.38 meV
       hydro 2 p 1.8
       hydro 3 d 7.6
       hydro 3 s 6.4
  #  "Second tier" - improvements: -49.91 meV to -5.39 meV
  #     hydro 4 f 11.6
  #     hydro 3 p 6.2
  #     hydro 3 d 5.6
  #     hydro 5 g 17.6
  #     hydro 1 s 0.75
  #  "Third tier" - improvements: -2.83 meV to -0.50 meV
  #     ionic 2 p auto
  #     hydro 4 f 10.8
  #     hydro 4 d 4.7
  #     hydro 2 s 6.8
  #  "Fourth tier" - improvements: -0.40 meV to -0.12 meV
  #     hydro 3 p 5
  #     hydro 3 s 3.3
  #     hydro 5 g 15.6
  #     hydro 4 f 17.6
  #     hydro 4 d 14
  # Further basis functions - -0.08 meV and below
  #     hydro 3 s 2.1
  #     hydro 4 d 11.6
  #     hydro 3 p 16
  #     hydro 2 s 17.2
  ################################################################################
    species        Au
  #     global species definitions
      nucleus             79
      mass                196.966569
  #
      l_hartree           4
  #
      cut_pot             3.5  1.5  1.0
      basis_dep_cutoff    1e-4
  #
      radial_base         73 5.0
      radial_multiplier   1
      angular_grids specified
        division   0.5066   50
        division   0.9861  110
        division   1.2821  194
        division   1.5344  302
  #      division   2.0427  434
  #      division   2.1690  590
  #      division   2.2710  770
  #      division   2.3066  974
  #      division   2.7597 1202
  #      outer_grid 974
        outer_grid 302
  ################################################################################
  #
  #  Definition of "minimal" basis
  #
  ################################################################################
  #     valence basis states
      valence      6  s   1.
      valence      5  p   6.
      valence      5  d  10.
      valence      4  f  14.
  #     ion occupancy
      ion_occ     6  s   0.
      ion_occ     5  p   6.
      ion_occ     5  d   9.
      ion_occ     4  f   14.
  ################################################################################
  #
  #  Suggested additional basis functions. For production calculations,
  #  uncomment them one after another (the most important basis functions are
  #  listed first).
  #
  #  Constructed for dimers: 2.10, 2.45, 3.00, 4.00 AA
  #
  ################################################################################
  #  "First tier" - max. impr. -161.60  meV, min. impr. -4.53 meV
       ionic 6 p auto
       hydro 4 f 7.4
       ionic 6 s auto
  #     hydro 5 g 10
  #     hydro 6 h 12.8
       hydro 3 d 2.5
  #  "Second tier" - max. impr. -2.46  meV, min. impr. -0.28 meV
  #     hydro 5 f 14.8
  #     hydro 4 d 3.9
  #     hydro 3 p 3.3
  #     hydro 1 s 0.45
  #     hydro 5 g 16.4
  #     hydro 6 h 13.6
  #  "Third tier" - max. impr. -0.49  meV, min. impr. -0.09 meV
  #     hydro 4 f 5.2
  #     hydro 4 d 5
  #     hydro 5 g 8
  #     hydro 5 p 8.2
  #     hydro 6 d 12.4
  #     hydro 6 s 14.8
  #  Further basis functions: -0.08 meV and below
  #     hydro 5 f 18.8
  #     hydro 5 g 20
  #    hydro 5 g 15.2
  
  
  -----------------------------------------------------------------------
  Completed first pass over input file control.in .
  -----------------------------------------------------------------------
  
  
  -----------------------------------------------------------------------
  Parsing geometry.in (first pass over file, find array dimensions only).
  The contents of geometry.in will be repeated verbatim below
  unless switched off by setting 'verbatim_writeout .false.' .
  in the first line of geometry.in .
  -----------------------------------------------------------------------
  
  # opt: au
  atom     -1.95086943     2.07352263     11.45741602     N
  atom     -2.70071866     3.15289803     11.67108872     C
  atom     -1.74663394     1.98039503     10.08563215     C
  atom     -2.39550569     3.03053030     9.47516539     C
  atom     -2.98859651     3.75566423     10.49036736     N
  atom     -3.03307463     3.51023005     12.63969826     H
  atom     -2.47836090     3.31317934     8.43212763     H
  atom     -0.96749377     0.87772490     9.44810179     C
  atom     0.01824167     0.79437180     9.93578922     H
  atom     -0.79216317     1.12955239     8.39006817     H
  atom     -1.69547854     -0.47010790     9.51802957     C
  atom     -1.74503108     -0.81977509     10.56325034     H
  atom     -2.72258608     -0.36209146     9.14364879     H
  atom     -1.01088539     -1.47038712     8.65466393     N
  atom     -0.03850720     -1.59047878     8.95748609     H
  atom     -1.45724607     -2.38559155     8.76441067     H
  atom     -3.53683129     4.60373723     10.37890351     H
  atom     -1.02384212     -1.02659515     6.37477347     Au
  atom     -0.97184450     0.98488717     4.51243201     Au
  atom     0.91581913     -1.27026369     4.41590611     Au
  atom     -1.94039938     -1.77610651     3.94359939     Au
  atom     -0.98364858     2.90868289     2.48397374     Au
    constrain_relaxation .true.
  atom     0.89728549     0.72320790     2.44342713     Au
    constrain_relaxation .true.
  atom     2.77821955     -1.46226708     2.4028805     Au
    constrain_relaxation .true.
  atom     -1.90122553     0.22622760     1.95639062     Au
    constrain_relaxation .true.
  atom     -0.02029146     -1.95924740     1.91584399     Au
    constrain_relaxation .true.
  atom     -2.81880248     -2.45622772     1.42880748     Au
    constrain_relaxation .true.
  atom     0.91757695     2.68245530     0.32758314     Au
    constrain_relaxation .true.
  atom     2.79851101     0.49698031     0.28703651     Au
    constrain_relaxation .true.
  atom     -1.88093406     2.18547499     -0.15945337     Au
    constrain_relaxation .true.
  atom     0.00000000     0.00000000     -0.2     Au
    constrain_relaxation .true.
  atom     1.88093406     -2.18547499     -0.24054662     Au
    constrain_relaxation .true.
  atom     -2.79851101     -0.49698032     -0.6870365     Au
    constrain_relaxation .true.
  atom     -0.91757696     -2.68245530     -0.72758313     Au
    constrain_relaxation .true.
  atom     -3.78215957     2.41170258     1.99693724     Au
    constrain_relaxation .true.
  atom     -1.27690383     0.84706742     13.21632754     Au
  atom     -0.20666356     -0.92284218     14.92746254     Au
  atom     0.15789481     1.95927205     15.31486497     Au
  atom     -2.54424133     0.79007364     15.65101229     Au
  atom     0.80067538     -2.72226339     16.83960063     Au
    constrain_relaxation .true.
  atom     1.18422876     0.11978134     17.14213394     Au
    constrain_relaxation .true.
  atom     1.56778214     2.96182608     17.44466725     Au
    constrain_relaxation .true.
  atom     -1.43900279     -1.02624961     17.4901671     Au
    constrain_relaxation .true.
  atom     -1.05544942     1.81579512     17.79270041     Au
    constrain_relaxation .true.
  atom     -3.67868099     0.66976417     18.14073358     Au
    constrain_relaxation .true.
  atom     2.23967818     -1.69601378     19.11818365     Au
    constrain_relaxation .true.
  atom     2.62323157     1.14603095     19.42071695     Au
    constrain_relaxation .true.
  atom     -0.38355337     -2.84204474     19.4662168     Au
    constrain_relaxation .true.
  atom     0.00000000     0.00000000     19.76875011     Au
    constrain_relaxation .true.
  atom     0.38355338     2.84204474     20.07128342     Au
    constrain_relaxation .true.
  atom     -2.62323155     -1.14603095     20.11678328     Au
    constrain_relaxation .true.
  atom     -2.23967818     1.69601379     20.41931659     Au
    constrain_relaxation .true.
  atom     -1.82255617     -3.86829434     17.1876338     Au
    constrain_relaxation .true.
  
  -----------------------------------------------------------------------
  Completed first pass over input file geometry.in .
  -----------------------------------------------------------------------
  

  Basic array size parameters:
  | Number of species                 :        5
  | Number of atoms                   :       53
  | Max. basis fn. angular momentum   :        3
  | Max. atomic/ionic basis occupied n:        6
  | Max. number of basis fn. types    :        3
  | Max. radial fns per species/type  :       14
  | Max. logarithmic grid size        :     1488
  | Max. radial integration grid size :       73
  | Max. angular integration grid size:      302
  | Max. angular grid division number :        8
  | Radial grid for Hartree potential :     1488
  | Number of spin channels           :        1

------------------------------------------------------------
          Reading file control.in.
------------------------------------------------------------
  XC: Using PBE gradient-corrected functionals.
  Spin treatment: No spin polarisation.
  Charge =   0.000000E+00: Neutral system requested explicitly.
  Occupation type: Gaussian broadening, width =   0.100000E-01 eV.
  Using pulay charge density mixing.
  Pulay mixing - number of memorized iterations:   10
  Charge density mixing - mixing parameter:     0.2000
  Convergence accuracy of self-consistent charge density:  0.1000E-03
  Convergence accuracy of sum of eigenvalues:  0.1000E-01
  Convergence accuracy of total energy:  0.1000E-05
  Maximum number of s.-c. iterations  :   500
  Geometry relaxation: Modified BFGS - TRM (trust radius method, i.e., trusted quadratic extrapolation).
  Convergence accuracy for geometry relaxation: Maximum force <   0.100000E-01 eV/A.
  Scalar relativistic treatment of kinetic energy: on-site free-atom approximation to ZORA.
 
  Reading configuration options for species H                   .
  | Found nuclear charge :   1.0000
  | Found atomic mass :    1.00794000000000      amu
  | Found l_max for Hartree potential  :   4
  | Found cutoff potl. onset [A], width [A], scale factor :    3.50000    1.50000    1.00000
  | Threshold for basis-dependent cutoff potential is   0.100000E-03
  | Found data for basic radial integration grid :    24 points, outermost radius =    5.000 A
  | Found multiplier for basic radial grid :   1
  | Found angular grid specification: user-specified.
  | Specified grid contains     5 separate shells.
  | Check grid settings after all constraints further below.
  | Found free-atom valence shell :  1 s   1.000
  | Found free-ion valence shell :  1 s   0.500
  | Found hydrogenic basis function :  2 s   2.100
  | Found hydrogenic basis function :  2 p   3.500
  Species H                   : Missing cutoff potential type.
  Defaulting to exp(1/x)/(1-x)^2 type cutoff potential.
  Species H : No 'logarithmic' tag. Using default grid for free atom:
  | Default logarithmic grid data [bohr] : 0.1000E-03 0.1000E+03 0.1012E+01
  Species H : On-site basis accuracy parameter (for Gram-Schmidt orthonormalisation) not specified.
  Using default value basis_acc =  0.1000000E-03.
  Species H                   : Using default innermost maximum threshold i_radial=  2 for radial functions.
  Species H                   : Default cutoff onset for free atom density etc. : 0.35000000E+01 AA.
  Species H                   : Basic radial grid will be enhanced according to radial_multiplier =   1, to contain    24 grid points.
 
  Reading configuration options for species C                   .
  | Found nuclear charge :   6.0000
  | Found atomic mass :    12.0107000000000      amu
  | Found l_max for Hartree potential  :   4
  | Found cutoff potl. onset [A], width [A], scale factor :    3.50000    1.50000    1.00000
  | Threshold for basis-dependent cutoff potential is   0.100000E-03
  | Found data for basic radial integration grid :    34 points, outermost radius =    5.000 A
  | Found multiplier for basic radial grid :   1
  | Found angular grid specification: user-specified.
  | Specified grid contains     5 separate shells.
  | Check grid settings after all constraints further below.
  | Found free-atom valence shell :  2 s   2.000
  | Found free-atom valence shell :  2 p   2.000
  | Found free-ion valence shell :  2 s   1.000
  | Found free-ion valence shell :  2 p   1.000
  | Found hydrogenic basis function :  2 p   1.700
  | Found hydrogenic basis function :  3 d   6.000
  | Found hydrogenic basis function :  2 s   4.900
  Species C                   : Missing cutoff potential type.
  Defaulting to exp(1/x)/(1-x)^2 type cutoff potential.
  Species C : No 'logarithmic' tag. Using default grid for free atom:
  | Default logarithmic grid data [bohr] : 0.1000E-03 0.1000E+03 0.1012E+01
  Species C : On-site basis accuracy parameter (for Gram-Schmidt orthonormalisation) not specified.
  Using default value basis_acc =  0.1000000E-03.
  Species C                   : Using default innermost maximum threshold i_radial=  2 for radial functions.
  Species C                   : Default cutoff onset for free atom density etc. : 0.35000000E+01 AA.
  Species C                   : Basic radial grid will be enhanced according to radial_multiplier =   1, to contain    34 grid points.
 
  Reading configuration options for species N                   .
  | Found nuclear charge :   7.0000
  | Found atomic mass :    14.0067000000000      amu
  | Found l_max for Hartree potential  :   4
  | Found cutoff potl. onset [A], width [A], scale factor :    3.50000    1.50000    1.00000
  | Threshold for basis-dependent cutoff potential is   0.100000E-03
  | Found data for basic radial integration grid :    35 points, outermost radius =    5.000 A
  | Found multiplier for basic radial grid :   1
  | Found angular grid specification: user-specified.
  | Specified grid contains     5 separate shells.
  | Check grid settings after all constraints further below.
  | Found free-atom valence shell :  2 s   2.000
  | Found free-atom valence shell :  2 p   3.000
  | Found free-ion valence shell :  2 s   1.000
  | Found free-ion valence shell :  2 p   2.000
  | Found hydrogenic basis function :  2 p   1.800
  | Found hydrogenic basis function :  3 d   6.800
  | Found hydrogenic basis function :  3 s   5.800
  Species N                   : Missing cutoff potential type.
  Defaulting to exp(1/x)/(1-x)^2 type cutoff potential.
  Species N : No 'logarithmic' tag. Using default grid for free atom:
  | Default logarithmic grid data [bohr] : 0.1000E-03 0.1000E+03 0.1012E+01
  Species N : On-site basis accuracy parameter (for Gram-Schmidt orthonormalisation) not specified.
  Using default value basis_acc =  0.1000000E-03.
  Species N                   : Using default innermost maximum threshold i_radial=  2 for radial functions.
  Species N                   : Default cutoff onset for free atom density etc. : 0.35000000E+01 AA.
  Species N                   : Basic radial grid will be enhanced according to radial_multiplier =   1, to contain    35 grid points.
 
  Reading configuration options for species O                   .
  | Found nuclear charge :   8.0000
  | Found atomic mass :    15.9994000000000      amu
  | Found l_max for Hartree potential  :   4
  | Found cutoff potl. onset [A], width [A], scale factor :    3.50000    1.50000    1.00000
  | Threshold for basis-dependent cutoff potential is   0.100000E-03
  | Found data for basic radial integration grid :    36 points, outermost radius =    5.000 A
  | Found multiplier for basic radial grid :   1
  | Found angular grid specification: user-specified.
  | Specified grid contains     5 separate shells.
  | Check grid settings after all constraints further below.
  | Found free-atom valence shell :  2 s   2.000
  | Found free-atom valence shell :  2 p   4.000
  | Found free-ion valence shell :  2 s   1.000
  | Found free-ion valence shell :  2 p   3.000
  | Found hydrogenic basis function :  2 p   1.800
  | Found hydrogenic basis function :  3 d   7.600
  | Found hydrogenic basis function :  3 s   6.400
  Species O                   : Missing cutoff potential type.
  Defaulting to exp(1/x)/(1-x)^2 type cutoff potential.
  Species O : No 'logarithmic' tag. Using default grid for free atom:
  | Default logarithmic grid data [bohr] : 0.1000E-03 0.1000E+03 0.1012E+01
  Species O : On-site basis accuracy parameter (for Gram-Schmidt orthonormalisation) not specified.
  Using default value basis_acc =  0.1000000E-03.
  Species O                   : Using default innermost maximum threshold i_radial=  2 for radial functions.
  Species O                   : Default cutoff onset for free atom density etc. : 0.35000000E+01 AA.
  Species O                   : Basic radial grid will be enhanced according to radial_multiplier =   1, to contain    36 grid points.
 
  Reading configuration options for species Au                  .
  | Found nuclear charge :  79.0000
  | Found atomic mass :    196.966569000000      amu
  | Found l_max for Hartree potential  :   4
  | Found cutoff potl. onset [A], width [A], scale factor :    3.50000    1.50000    1.00000
  | Threshold for basis-dependent cutoff potential is   0.100000E-03
  | Found data for basic radial integration grid :    73 points, outermost radius =    5.000 A
  | Found multiplier for basic radial grid :   1
  | Found angular grid specification: user-specified.
  | Specified grid contains     5 separate shells.
  | Check grid settings after all constraints further below.
  | Found free-atom valence shell :  6 s   1.000
  | Found free-atom valence shell :  5 p   6.000
  | Found free-atom valence shell :  5 d  10.000
  | Found free-atom valence shell :  4 f  14.000
  | Found free-ion valence shell :  6 s   0.000
  | Found free-ion valence shell :  5 p   6.000
  | Found free-ion valence shell :  5 d   9.000
  | Found free-ion valence shell :  4 f  14.000
  | Found ionic basis function :  6 p , default cutoff radius.
  | Found hydrogenic basis function :  4 f   7.400
  | Found ionic basis function :  6 s , default cutoff radius.
  | Found hydrogenic basis function :  3 d   2.500
  Species Au                  : Missing cutoff potential type.
  Defaulting to exp(1/x)/(1-x)^2 type cutoff potential.
  Species Au: No 'logarithmic' tag. Using default grid for free atom:
  | Default logarithmic grid data [bohr] : 0.1000E-03 0.1000E+03 0.1012E+01
  | Will include ionic basis functions of  2.0-fold positive Au                   ion.
  Species Au: On-site basis accuracy parameter (for Gram-Schmidt orthonormalisation) not specified.
  Using default value basis_acc =  0.1000000E-03.
  Species Au                  : Using default innermost maximum threshold i_radial=  2 for radial functions.
  Species Au                  : Default cutoff onset for free atom density etc. : 0.35000000E+01 AA.
  Species Au                  : Basic radial grid will be enhanced according to radial_multiplier =   1, to contain    73 grid points.
 
  Finished reading input file 'control.in'. Consistency checks are next.
 
  MPI_IN_PLACE appears to work with this MPI implementation.
  | Keeping use_mpi_in_place .true. (see manual).
  Target number of points in a grid batch is not set. Defaulting to  100
  Method for grid partitioning is not set. Defaulting to parallel hash+maxmin partitioning.
  Batch size limit is not set. Defaulting to    200
  By default, will store active basis functions for each batch.
  If in need of memory, prune_basis_once .false. can be used to disable this option.
  communication_type for Hartree potential was not specified.
  Defaulting to calc_hartree .
  Pulay mixer: Number of initial linear mixing iterations not set.
  Defaulting to    0 iterations.
  Work space size for distributed Hartree potential not set.
  Defaulting to   0.200000E+03 MB.
  Algorithm-dependent basis array size parameters:
  | n_max_pulay                         :       10
  Presetting      1001 iterations before the initial mixing cycle
  is restarted anyway using the sc_init_iter criterion / keyword.
  Presetting a factor      1.000 between actual scf density residual
  and density convergence criterion sc_accuracy_rho below which sc_init_iter
  takes no effect.
  No maximum number of relaxation steps, defaulting to     1000
  Default initial Hessian is Lindh matrix (thres = 15.00) plus  0.200000E+01 eV/A^2 times unity.
  No maximum energy tolerance for TRM/BFGS moves, defaulting to   0.200000E-03
  No harmonic length scale. Defaulting to   0.250000E-01 A.
  No trust radius initializer. Defaulting to   0.200000E+00 A.
  Force calculation: scf convergence accuracy of forces not set.
  Defaulting to 'sc_accuracy_forces not_checked'.
  Handling of forces: Unphysical translation and rotation will be removed from forces.
  No accuracy limit for integral partition fn. given. Defaulting to  0.1000E-14.
  No threshold value for u(r) in integrations given. Defaulting to  0.1000E-05.
  No accuracy for occupation numbers given. Defaulting to  0.1000E-12.
  No threshold value for occupation numbers given. Defaulting to  0.0000E+00.
  No accuracy for fermi level given. Defaulting to  0.1000E-19.
  Maximum # of iterations to find E_F not set. Defaulting to  200.
  Preferred method for the eigenvalue solver ('KS_method') not specified in 'control.in'.
  Calling BLACS routine to test compilation state
  Since ScaLAPACK support is enabled, defaulting to 'elsi'.
  Will not use alltoall communication since running on < 1024 CPUs.
  Threshold for basis singularities not set.
  Default threshold for basis singularities:  0.1000E-04
  partition_type (choice of integration weights) for integrals was not specified.
  | Using a version of the partition function of Stratmann and coworkers ('stratmann_smoother').
  | At each grid point, the set of atoms used to build the partition table is smoothly restricted to
  | only those atoms whose free-atom density would be non-zero at that grid point.
  Partitioning for Hartree potential was not defined. Using partition_type for integrals.
  | Adjusted default value of keyword multip_moments_threshold to:       0.10000000E-11
  | This value may affect high angular momentum components of the Hartree potential in periodic systems.
  No q(lm)/r^(l+1) cutoff set for long-range Hartree potential.
  | Using default value of  0.100000E-09 .
  | Verify using the multipole_threshold keyword.
  Defaulting to new monopole extrapolation.
  Density update method: automatic selection selected.
  Geometry relaxation: A file "geometry.in.next_step" is written out by default after each step.
  | This file contains the geometry of the current relaxation step as well as
  | the current Hessian matrix needed to restart the relaxation algorithm.
  | If you do not want part or all of this information, use the keywords
  | "write_restart_geometry" or "hessian_to_restart_geometry" to switch the output off.
------------------------------------------------------------


------------------------------------------------------------
          Reading geometry description geometry.in.
------------------------------------------------------------
  Found relaxation constraint for atom     22: All coordinates fixed.
  Found relaxation constraint for atom     23: All coordinates fixed.
  Found relaxation constraint for atom     24: All coordinates fixed.
  Found relaxation constraint for atom     25: All coordinates fixed.
  Found relaxation constraint for atom     26: All coordinates fixed.
  Found relaxation constraint for atom     27: All coordinates fixed.
  Found relaxation constraint for atom     28: All coordinates fixed.
  Found relaxation constraint for atom     29: All coordinates fixed.
  Found relaxation constraint for atom     30: All coordinates fixed.
  Found relaxation constraint for atom     31: All coordinates fixed.
  Found relaxation constraint for atom     32: All coordinates fixed.
  Found relaxation constraint for atom     33: All coordinates fixed.
  Found relaxation constraint for atom     34: All coordinates fixed.
  Found relaxation constraint for atom     35: All coordinates fixed.
  Found relaxation constraint for atom     40: All coordinates fixed.
  Found relaxation constraint for atom     41: All coordinates fixed.
  Found relaxation constraint for atom     42: All coordinates fixed.
  Found relaxation constraint for atom     43: All coordinates fixed.
  Found relaxation constraint for atom     44: All coordinates fixed.
  Found relaxation constraint for atom     45: All coordinates fixed.
  Found relaxation constraint for atom     46: All coordinates fixed.
  Found relaxation constraint for atom     47: All coordinates fixed.
  Found relaxation constraint for atom     48: All coordinates fixed.
  Found relaxation constraint for atom     49: All coordinates fixed.
  Found relaxation constraint for atom     50: All coordinates fixed.
  Found relaxation constraint for atom     51: All coordinates fixed.
  Found relaxation constraint for atom     52: All coordinates fixed.
  Found relaxation constraint for atom     53: All coordinates fixed.
  Input structure read successfully.
  The structure contains       53 atoms,  and a total of       2904.000 electrons.

  Input geometry:
  | No unit cell requested.
  | Atomic structure:
  |       Atom                x [A]            y [A]            z [A]
  |    1: Species N            -1.95086943        2.07352263       11.45741602
  |    2: Species C            -2.70071866        3.15289803       11.67108872
  |    3: Species C            -1.74663394        1.98039503       10.08563215
  |    4: Species C            -2.39550569        3.03053030        9.47516539
  |    5: Species N            -2.98859651        3.75566423       10.49036736
  |    6: Species H            -3.03307463        3.51023005       12.63969826
  |    7: Species H            -2.47836090        3.31317934        8.43212763
  |    8: Species C            -0.96749377        0.87772490        9.44810179
  |    9: Species H             0.01824167        0.79437180        9.93578922
  |   10: Species H            -0.79216317        1.12955239        8.39006817
  |   11: Species C            -1.69547854       -0.47010790        9.51802957
  |   12: Species H            -1.74503108       -0.81977509       10.56325034
  |   13: Species H            -2.72258608       -0.36209146        9.14364879
  |   14: Species N            -1.01088539       -1.47038712        8.65466393
  |   15: Species H            -0.03850720       -1.59047878        8.95748609
  |   16: Species H            -1.45724607       -2.38559155        8.76441067
  |   17: Species H            -3.53683129        4.60373723       10.37890351
  |   18: Species Au           -1.02384212       -1.02659515        6.37477347
  |   19: Species Au           -0.97184450        0.98488717        4.51243201
  |   20: Species Au            0.91581913       -1.27026369        4.41590611
  |   21: Species Au           -1.94039938       -1.77610651        3.94359939
  |   22: Species Au           -0.98364858        2.90868289        2.48397374
  |   23: Species Au            0.89728549        0.72320790        2.44342713
  |   24: Species Au            2.77821955       -1.46226708        2.40288050
  |   25: Species Au           -1.90122553        0.22622760        1.95639062
  |   26: Species Au           -0.02029146       -1.95924740        1.91584399
  |   27: Species Au           -2.81880248       -2.45622772        1.42880748
  |   28: Species Au            0.91757695        2.68245530        0.32758314
  |   29: Species Au            2.79851101        0.49698031        0.28703651
  |   30: Species Au           -1.88093406        2.18547499       -0.15945337
  |   31: Species Au            0.00000000        0.00000000       -0.20000000
  |   32: Species Au            1.88093406       -2.18547499       -0.24054662
  |   33: Species Au           -2.79851101       -0.49698032       -0.68703650
  |   34: Species Au           -0.91757696       -2.68245530       -0.72758313
  |   35: Species Au           -3.78215957        2.41170258        1.99693724
  |   36: Species Au           -1.27690383        0.84706742       13.21632754
  |   37: Species Au           -0.20666356       -0.92284218       14.92746254
  |   38: Species Au            0.15789481        1.95927205       15.31486497
  |   39: Species Au           -2.54424133        0.79007364       15.65101229
  |   40: Species Au            0.80067538       -2.72226339       16.83960063
  |   41: Species Au            1.18422876        0.11978134       17.14213394
  |   42: Species Au            1.56778214        2.96182608       17.44466725
  |   43: Species Au           -1.43900279       -1.02624961       17.49016710
  |   44: Species Au           -1.05544942        1.81579512       17.79270041
  |   45: Species Au           -3.67868099        0.66976417       18.14073358
  |   46: Species Au            2.23967818       -1.69601378       19.11818365
  |   47: Species Au            2.62323157        1.14603095       19.42071695
  |   48: Species Au           -0.38355337       -2.84204474       19.46621680
  |   49: Species Au            0.00000000        0.00000000       19.76875011
  |   50: Species Au            0.38355338        2.84204474       20.07128342
  |   51: Species Au           -2.62323155       -1.14603095       20.11678328
  |   52: Species Au           -2.23967818        1.69601379       20.41931659
  |   53: Species Au           -1.82255617       -3.86829434       17.18763380
  |

  | The smallest distance between any two atoms is         1.01597902 AA.
  |
  | The first atom of this pair is atom number                      5 .
  | The second atom of this pair is atom number                    17 .

  Number of empty states per atom not set in control.in - providing a guess from actual geometry.
  | Total number of empty states used during s.c.f. cycle:      362
  If you use a very high smearing, use empty_states (per atom!) in control.in to increase this value.

  Structure-dependent array size parameters: 
  | Maximum number of distinct radial functions  :       39
  | Maximum number of basis functions            :     2173
  | Number of Kohn-Sham states (occupied + empty):     1814
------------------------------------------------------------

------------------------------------------------------------
          Preparing all fixed parts of the calculation.
------------------------------------------------------------
  Determining machine precision:
    2.225073858507201E-308
  Setting up grids for atomic and cluster calculations.

  Creating wave function, potential, and density for free atoms.

  Species: H

  List of occupied orbitals and eigenvalues:
    n    l              occ      energy [Ha]    energy [eV]
    1    0           1.0000        -0.237593        -6.4652


  Species: C

  List of occupied orbitals and eigenvalues:
    n    l              occ      energy [Ha]    energy [eV]
    1    0           2.0000       -10.046810      -273.3876
    2    0           2.0000        -0.503128       -13.6908
    2    1           2.0000        -0.191849        -5.2205


  Species: N

  List of occupied orbitals and eigenvalues:
    n    l              occ      energy [Ha]    energy [eV]
    1    0           2.0000       -14.143973      -384.8771
    2    0           2.0000        -0.682008       -18.5584
    2    1           3.0000        -0.259605        -7.0642


  Species: O

  List of occupied orbitals and eigenvalues:
    n    l              occ      energy [Ha]    energy [eV]
    1    0           2.0000       -18.926989      -515.0296
    2    0           2.0000        -0.880247       -23.9527
    2    1           4.0000        -0.331514        -9.0210


  Species: Au

  List of occupied orbitals and eigenvalues:
    n    l              occ      energy [Ha]    energy [eV]
    1    0           2.0000     -3256.431199    -88612.0015
    2    0           2.0000      -533.654865    -14521.4877
    3    0           2.0000      -124.232088     -3380.5271
    4    0           2.0000       -26.843821      -730.4575
    5    0           2.0000        -3.974251      -108.1449
    6    0           1.0000        -0.207180        -5.6377
    2    1           6.0000      -460.384091    -12527.6885
    3    1           6.0000      -103.448928     -2814.9886
    4    1           6.0000       -20.075789      -546.2900
    5    1           6.0000        -2.189737       -59.5858
    3    2          10.0000       -81.364825     -2214.0495
    4    2          10.0000       -11.975168      -325.8609
    5    2          10.0000        -0.249072        -6.7776
    4    3          14.0000        -2.985533       -81.2405

  Creating fixed part of basis set: Ionic, confined, hydrogenic.
 
  H                    hydrogenic:
 
  List of hydrogenic basis orbitals: 
    n    l      effective z      eigenvalue [eV]  inner max. [A]     outer max. [A]     outer radius [A]   
    2    0         2.100000       -14.9728           0.193243           1.317208           4.583499
    2    1         3.500000       -41.6669           0.602369           0.602369           3.723403
 
 
  C                    hydrogenic:
 
  List of hydrogenic basis orbitals: 
    n    l      effective z      eigenvalue [eV]  inner max. [A]     outer max. [A]     outer radius [A]   
    2    1         1.700000        -9.7616           1.230570           1.230570           4.607917
    3    2         6.000000       -54.4224           0.792453           0.792453           3.883070
    2    0         4.900000       -81.6679           0.082559           0.562749           3.078220
 
 
  N                    hydrogenic:
 
  List of hydrogenic basis orbitals: 
    n    l      effective z      eigenvalue [eV]  inner max. [A]     outer max. [A]     outer radius [A]   
    2    1         1.800000       -10.9749           1.177451           1.177451           4.573712
    3    2         6.800000       -69.9026           0.704619           0.704619           3.538137
    3    0         5.800000       -50.8545           0.067388           1.191934           4.250239
 
 
  O                    hydrogenic:
 
  List of hydrogenic basis orbitals: 
    n    l      effective z      eigenvalue [eV]  inner max. [A]     outer max. [A]     outer radius [A]   
    2    1         1.800000       -10.9749           1.164242           1.164242           4.578029
    3    2         7.600000       -87.3180           0.624125           0.624125           3.251020
    3    0         6.400000       -61.9207           0.061167           1.081902           4.001998
 
 
  Au                   ion:

  List of free ionic orbitals and eigenvalues:
    n    l      energy [Ha]    energy [eV]
    1    0     -3257.305345    -88635.7882
    2    0      -534.468969    -14543.6406
    3    0      -125.037161     -3402.4343
    4    0       -27.646714      -752.3054
    5    0        -4.773414      -129.8912
    2    1      -461.196653    -12549.7994
    3    1      -104.253556     -2836.8836
    4    1       -20.878488      -568.1326
    5    1        -2.984283       -81.2065
    3    2       -82.168946     -2235.9308
    4    2       -12.777596      -347.6961
    5    2        -1.004504       -27.3340
    4    3        -3.787521      -103.0637


  List of ionic basis orbitals and eigenvalues:
    n    l      energy [Ha]    energy [eV]    outer radius [A]
    6    1        -0.535414       -14.5694       4.560053
    6    0        -0.835538       -22.7361       4.504645

 
  Au                   hydrogenic:
 
  List of hydrogenic basis orbitals: 
    n    l      effective z      eigenvalue [eV]  inner max. [A]     outer max. [A]     outer radius [A]   
    4    3         7.400000       -46.5648           1.145580           1.145580           4.504645
    3    2         2.500000        -9.0892           1.822958           1.822958           4.616141
 

  Adding cutoff potential to free-atom effective potential.
  Creating atomic-like basis functions for current effective potential.

  Species H                   :

  List of atomic basis orbitals and eigenvalues:
    n    l      energy [Ha]    energy [eV]    outer radius [A]
    1    0        -0.237593        -6.4652       4.527807


  Species C                   :

  List of atomic basis orbitals and eigenvalues:
    n    l      energy [Ha]    energy [eV]    outer radius [A]
    1    0       -10.046810      -273.3876       1.934409
    2    0        -0.503128       -13.6908       4.496620
    2    1        -0.191849        -5.2205       4.551928


  Species N                   :

  List of atomic basis orbitals and eigenvalues:
    n    l      energy [Ha]    energy [eV]    outer radius [A]
    1    0       -14.143973      -384.8771       1.637919
    2    0        -0.682008       -18.5584       4.463241
    2    1        -0.259605        -7.0642       4.518138


  Species O                   :

  List of atomic basis orbitals and eigenvalues:
    n    l      energy [Ha]    energy [eV]    outer radius [A]
    1    0       -18.926989      -515.0296       1.415765
    2    0        -0.880247       -23.9527       4.413171
    2    1        -0.331514        -9.0210       4.522403


  Species Au                  :

  List of atomic basis orbitals and eigenvalues:
    n    l      energy [Ha]    energy [eV]    outer radius [A]
    1    0     -3256.431199    -88612.0015       0.120816
    2    0      -533.654865    -14521.4877       0.313506
    3    0      -124.232088     -3380.5271       0.652830
    4    0       -26.843821      -730.4575       1.359424
    5    0        -3.974251      -108.1449       3.318406
    6    0        -0.207180        -5.6377       4.560053
    2    1      -460.384091    -12527.6885       0.329217
    3    1      -103.448928     -2814.9886       0.702515
    4    1       -20.075789      -546.2900       1.536198
    5    1        -2.189737       -59.5858       4.035315
    3    2       -81.364825     -2214.0495       0.755981
    4    2       -11.975168      -325.8609       1.868078
    5    2        -0.249072        -6.7776       4.504645
    4    3        -2.985533       -81.2405       3.198908

  Assembling full basis from fixed parts.
  | Species H :   atomic orbital   1 s accepted.
  | Species H :    hydro orbital   2 s accepted.
  | Species H :    hydro orbital   2 p accepted.
  | Species C :   atomic orbital   1 s accepted.
  | Species C :    hydro orbital   2 s accepted.
  | Species C :   atomic orbital   2 s accepted.
  | Species C :   atomic orbital   2 p accepted.
  | Species C :    hydro orbital   2 p accepted.
  | Species C :    hydro orbital   3 d accepted.
  | Species N :   atomic orbital   1 s accepted.
  | Species N :    hydro orbital   3 s accepted.
  | Species N :   atomic orbital   2 s accepted.
  | Species N :   atomic orbital   2 p accepted.
  | Species N :    hydro orbital   2 p accepted.
  | Species N :    hydro orbital   3 d accepted.
  | Species O :   atomic orbital   1 s accepted.
  | Species O :    hydro orbital   3 s accepted.
  | Species O :   atomic orbital   2 s accepted.
  | Species O :   atomic orbital   2 p accepted.
  | Species O :    hydro orbital   2 p accepted.
  | Species O :    hydro orbital   3 d accepted.
  | Species Au :   atomic orbital   1 s accepted.
  | Species Au :   atomic orbital   2 s accepted.
  | Species Au :   atomic orbital   3 s accepted.
  | Species Au :   atomic orbital   4 s accepted.
  | Species Au :   atomic orbital   5 s accepted.
  | Species Au :    ionic orbital   6 s accepted.
  | Species Au :   atomic orbital   6 s accepted.
  | Species Au :   atomic orbital   2 p accepted.
  | Species Au :   atomic orbital   3 p accepted.
  | Species Au :   atomic orbital   4 p accepted.
  | Species Au :   atomic orbital   5 p accepted.
  | Species Au :    ionic orbital   6 p accepted.
  | Species Au :   atomic orbital   3 d accepted.
  | Species Au :   atomic orbital   4 d accepted.
  | Species Au :   atomic orbital   5 d accepted.
  | Species Au :    hydro orbital   3 d accepted.
  | Species Au :   atomic orbital   4 f accepted.
  | Species Au :    hydro orbital   4 f accepted.
 
  Basis size parameters after reduction:
  | Total number of radial functions:       39
  | Total number of basis functions :     2173
 
  Per-task memory consumption for arrays in subroutine allocate_ext:
  |          14.911264MB.
  Testing on-site integration grid accuracy.
  |  Species  Function  <phi|h_atom|phi> (log., in eV)  <phi|h_atom|phi> (rad., in eV)
           1        1                 -6.4664147733                 -6.4652229287
           1        2                 13.7099062243                 13.7158503352
           1        3                 25.2661739479                 25.2663166526
           2        4               -273.3876219315               -273.3875919975
           2        5                -10.7204647108                -10.7200987593
           2        6                 17.5782951179                 17.5752355749
           2        7                 -5.2222267968                 -5.2237454457
           2        8                  8.6866956299                  8.6634852752
           2        9                 27.4984676176                 27.4985577282
           3       10               -384.8770852102               -384.8770238661
           3       11                 12.5754985571                 12.5755902269
           3       12                -15.7673946340                -15.7673131149
           3       13                 -7.0647024644                 -7.0651952861
           3       14                  8.8117910311                  8.7928686445
           3       15                 35.9641313273                 35.9643080892
           4       16               -515.0295626295               -515.0294562738
           4       17                 15.1698434419                 15.1699322204
           4       18                -21.6038822678                -21.6039118105
           4       19                 -9.0211123393                 -9.0212703513
           4       20                  8.3047696391                  8.2854840999
           4       21                 45.8428042125                 45.8427461222
           5       22             -88612.0014632773             -88611.6712034181 ***
           5       23             -14521.4877183143             -14521.4814000019
           5       24              -3380.5271185031              -3380.5267747562
           5       25               -730.4575387838               -730.4575126191
           5       26               -108.1448599552               -108.1448564322
           5       27                 -5.0942970293                 -5.0944290534
           5       28                  6.1115134680                  6.0788143741 ***
           5       29             -12527.6885190594             -12527.6885173588
           5       30              -2814.9885638790              -2814.9885483085
           5       31               -546.2900141438               -546.2900083823
           5       32                -59.5857773586                -59.5857755984
           5       33                  0.8801786283                  0.8779179064
           5       34              -2214.0495316651              -2214.0495265841
           5       35               -325.8609015442               -325.8608990421
           5       36                 -6.7779523966                 -6.7780549585
           5       37                  6.8774732661                  6.8534371039
           5       38                -81.2404736873                -81.2404731624
           5       39                 21.6950885227                 21.6950713512
 * Note: Onsite integrals marked "***" above are less accurate than
 * onsite_accuracy_threshold =    0.03000 eV. Usually, this is harmless.
 * However, one integral did have a negative value. This integral could be important.
 * When in doubt, tighten the "radial" and/or "radial_multiplier" flags to check.

  Preparing densities etc. for the partition functions (integrals / Hartree potential).

  Preparations completed.
  max(cpu_time)          :      0.399 s.
  Wall clock time (cpu1) :      0.400 s.
------------------------------------------------------------

------------------------------------------------------------
          Begin self-consistency loop: Initialization.

          Date     :  20221012, Time     :  123629.332
------------------------------------------------------------

  Initializing index lists of integration centers etc. from given atomic structure:
  | Number of centers in hartree potential         :        53
  | Number of centers in hartree multipole         :        53
  | Number of centers in electron density summation:        53
  | Number of centers in basis integrals           :        53
  | Number of centers in integrals                 :        53
  | Number of centers in hamiltonian               :        53
  Initializing relaxation algorithms.
  * Using 16 tasks for Scalapack Eigenvalue solver.
  Detailed listing of tasks and assigned k-points:
  (for non-periodic systems, the "k-point" denotes an internal label only)
   Task     0 k-point     1 on scc-gc4
   Task     1 k-point     1 on scc-gc4
   Task     2 k-point     1 on scc-gc4
   Task     3 k-point     1 on scc-gc4
   Task     4 k-point     1 on scc-gc4
   Task     5 k-point     1 on scc-gc4
   Task     6 k-point     1 on scc-gc4
   Task     7 k-point     1 on scc-gc4
   Task     8 k-point     1 on scc-gc4
   Task     9 k-point     1 on scc-gc4
   Task    10 k-point     1 on scc-gc4
   Task    11 k-point     1 on scc-gc4
   Task    12 k-point     1 on scc-gc4
   Task    13 k-point     1 on scc-gc4
   Task    14 k-point     1 on scc-gc4
   Task    15 k-point     1 on scc-gc4
  Tasks:    16 split into      4 X      4 BLACS grid
  Calculating block size based on n_basis =         2173  max_nprow =            4  max_npcol =            4
  ScaLAPACK block size set to:           16
  Allocating        2.367 MB for ovlp
  Allocating        2.367 MB for ham
  Allocating        2.367 MB for eigenvec
  Required Scalapack workspace - INTEGER:            1  REAL:             1
  Partitioning the integration grid into batches with parallel hashing+maxmin method.
  | Number of batches:     3566
  | Maximal batch size:     194
  | Minimal batch size:      51
  | Average batch size:     117.432
  | Standard deviation of batch sizes:      35.876

  Integration load balanced across    16 MPI tasks.
  Work distribution over tasks is as follows:
  Task     0 has      26127 integration points.
  Task     1 has      26192 integration points.
  Task     2 has      26178 integration points.
  Task     3 has      26187 integration points.
  Task     4 has      26173 integration points.
  Task     5 has      26156 integration points.
  Task     6 has      26194 integration points.
  Task     7 has      26117 integration points.
  Task     8 has      26201 integration points.
  Task     9 has      26262 integration points.
  Task    10 has      26145 integration points.
  Task    11 has      26149 integration points.
  Task    12 has      26187 integration points.
  Task    13 has      26198 integration points.
  Task    14 has      26120 integration points.
  Task    15 has      26176 integration points.
  Initializing partition tables, free-atom densities, potentials, etc. across the integration grid (initialize_grid_storage).
  | initialize_grid_storage: Actual outermost partition radius vs. multipole_radius_free
  | (-- VB: in principle, multipole_radius_free should be larger, hence this output)
  | Species        1: Confinement radius =              4.999999999999999 AA, multipole_radius_free =              5.054417573612229 AA.
  | Species        1: outer_partition_radius set to              5.054417573612229 AA .
  | Species        2: Confinement radius =              4.999999999999999 AA, multipole_radius_free =              5.019602836301480 AA.
  | Species        2: outer_partition_radius set to              5.019602836301480 AA .
  | Species        3: Confinement radius =              4.999999999999999 AA, multipole_radius_free =              5.043624274424571 AA.
  | Species        3: outer_partition_radius set to              5.043624274424571 AA .
  | Species        4: Confinement radius =              4.999999999999999 AA, multipole_radius_free =              5.048384829883283 AA.
  | Species        4: outer_partition_radius set to              5.048384829883283 AA .
  | Species        5: Confinement radius =              4.999999999999999 AA, multipole_radius_free =              5.028561921230412 AA.
  | Species        5: outer_partition_radius set to              5.028561921230412 AA .
  | Original list of interatomic distances with          53 x         53 entries is created.
  | Net number of integration points:   418762
  | of which are non-zero points    :   383239
  Renormalizing the initial density to the exact electron count on the 3D integration grid.
  | Initial density: Formal number of electrons (from input files) :    2904.0000000000
  | Integrated number of electrons on 3D grid     :    2903.9997633247
  | Charge integration error                      :      -0.0002366753
  | Normalization factor for density and gradient :       1.0000000815
  Obtaining max. number of non-zero basis functions in each batch (get_n_compute_maxes).
  | Maximal number of non-zero basis functions:      583 in task     0
  | Maximal number of non-zero basis functions:      592 in task     1
  | Maximal number of non-zero basis functions:      576 in task     2
  | Maximal number of non-zero basis functions:      585 in task     3
  | Maximal number of non-zero basis functions:      597 in task     4
  | Maximal number of non-zero basis functions:      610 in task     5
  | Maximal number of non-zero basis functions:      595 in task     6
  | Maximal number of non-zero basis functions:      578 in task     7
  | Maximal number of non-zero basis functions:      600 in task     8
  | Maximal number of non-zero basis functions:      569 in task     9
  | Maximal number of non-zero basis functions:      611 in task    10
  | Maximal number of non-zero basis functions:      578 in task    11
  | Maximal number of non-zero basis functions:      578 in task    12
  | Maximal number of non-zero basis functions:      586 in task    13
  | Maximal number of non-zero basis functions:      578 in task    14
  | Maximal number of non-zero basis functions:      600 in task    15
  Selecting the method for density update.
  Density matrix based charge density update selected.
  Scalapack and density-matrix based density update requested:
  Switching to packed matrix format "index" by default.
  Hamiltonian matrix size:
  | Size of matrix non-packed:               2362051
  | Size of matrix packed:          855872
  Allocating       31.535 MB for KS_eigenvector
  Integrating Hamiltonian matrix: batch-based integration.
  Time summed over all CPUs for integration: real work        7.899 s, elapsed        8.381 s
  Integrating overlap matrix.
  Time summed over all CPUs for integration: real work        4.392 s, elapsed        4.759 s
  Decreasing sparse matrix size:
   Tolerance:  9.999999824516700E-014
   Hamiltonian matrix
  | Array has   791059 nonzero elements out of   855872 elements
  | Sparsity factor is 0.076
   Overlap matrix
  | Array has   756009 nonzero elements out of   855872 elements
  | Sparsity factor is 0.117
  New size of hamiltonian matrix:      791103
  Deallocating overlap matrix.

  Updating Kohn-Sham eigenvalues and eigenvectors using ELSI and the ELPA eigensolver.
  ELPA settings:
  | ELPA solver          2
  | Time full => band           :     0.126 s
  | Time band => tridiagonal    :     0.043 s
  | Time solve tridiagonal      :     0.032 s
  Overlap matrix is nonsingular
  | Lowest eigenvalue of overlap  :  0.17E-02
  | Highest eigenvalue of overlap :  0.65E+01
  Finished singularity check of overlap matrix
  | Time :     0.204 s
  Finished Cholesky decomposition
  | Time :     0.061 s
  Finished transformation to standard eigenproblem
  | Time :     0.067 s
  Starting ELPA eigensolver
  | Time full => band           :     0.118 s
  | Time band => tridiagonal    :     0.041 s
  | Time solve tridiagonal      :     0.029 s
  | Time ev tridiagonal => band :     0.145 s
  | Time ev band => full        :     0.062 s
  Finished solving standard eigenproblem
  | Time :     0.396 s
  Finished back-transformation of eigenvectors
  | Time :     0.043 s

  Obtaining occupation numbers and chemical potential using ELSI.
  | Chemical potential (Fermi level):    -4.59707107eV
  Writing Kohn-Sham eigenvalues.

  State    Occupation    Eigenvalue [Ha]    Eigenvalue [eV]
      1       2.00000       -3256.415419       -88611.57206
      2       2.00000       -3256.415395       -88611.57140
      3       2.00000       -3256.415233       -88611.56698
      4       2.00000       -3256.415206       -88611.56625
      5       2.00000       -3256.415103       -88611.56346
      6       2.00000       -3256.415099       -88611.56335
      7       2.00000       -3256.414749       -88611.55384
      8       2.00000       -3256.414749       -88611.55384
      9       2.00000       -3256.414374       -88611.54363
     10       2.00000       -3256.414372       -88611.54356
     11       2.00000       -3256.414369       -88611.54348
     12       2.00000       -3256.414293       -88611.54142
     13       2.00000       -3256.414235       -88611.53985
     14       2.00000       -3256.414181       -88611.53836
     15       2.00000       -3256.414146       -88611.53742
     16       2.00000       -3256.414097       -88611.53608
     17       2.00000       -3256.413692       -88611.52505
     18       2.00000       -3256.413650       -88611.52393
     19       2.00000       -3256.413500       -88611.51983
     20       2.00000       -3256.413500       -88611.51983
     21       2.00000       -3256.413438       -88611.51816
     22       2.00000       -3256.413422       -88611.51771
     23       2.00000       -3256.413406       -88611.51727
     24       2.00000       -3256.413405       -88611.51726
     25       2.00000       -3256.413083       -88611.50850
     26       2.00000       -3256.413083       -88611.50850
     27       2.00000       -3256.413083       -88611.50849
     28       2.00000       -3256.413083       -88611.50849
     29       2.00000       -3256.413083       -88611.50849
     30       2.00000       -3256.413083       -88611.50849
     31       2.00000       -3256.413083       -88611.50849
     32       2.00000       -3256.413083       -88611.50849
     33       2.00000       -3256.413083       -88611.50849
     34       2.00000       -3256.413083       -88611.50849
     35       2.00000       -3256.412250       -88611.48582
     36       2.00000       -3256.412250       -88611.48582
     37       2.00000        -533.656711       -14521.53796
     38       2.00000        -533.656687       -14521.53729
     39       2.00000        -533.656523       -14521.53285
     40       2.00000        -533.656496       -14521.53211
     41       2.00000        -533.656394       -14521.52932
     42       2.00000        -533.656389       -14521.52920
     43       2.00000        -533.656039       -14521.51967
     44       2.00000        -533.656039       -14521.51967
     45       2.00000        -533.655661       -14521.50939
     46       2.00000        -533.655659       -14521.50932
     47       2.00000        -533.655656       -14521.50924
     48       2.00000        -533.655579       -14521.50715
     49       2.00000        -533.655522       -14521.50559
     50       2.00000        -533.655467       -14521.50410
     51       2.00000        -533.655431       -14521.50314
     52       2.00000        -533.655383       -14521.50181
     53       2.00000        -533.654977       -14521.49076
     54       2.00000        -533.654935       -14521.48963
     55       2.00000        -533.654784       -14521.48552
     56       2.00000        -533.654784       -14521.48552
     57       2.00000        -533.654722       -14521.48383
     58       2.00000        -533.654705       -14521.48338
     59       2.00000        -533.654689       -14521.48294
     60       2.00000        -533.654689       -14521.48293
     61       2.00000        -533.654366       -14521.47414
     62       2.00000        -533.654366       -14521.47414
     63       2.00000        -533.654366       -14521.47414
     64       2.00000        -533.654366       -14521.47414
     65       2.00000        -533.654366       -14521.47414
     66       2.00000        -533.654366       -14521.47414
     67       2.00000        -533.654366       -14521.47414
     68       2.00000        -533.654366       -14521.47414
     69       2.00000        -533.654366       -14521.47414
     70       2.00000        -533.654366       -14521.47414
     71       2.00000        -533.653529       -14521.45137
     72       2.00000        -533.653529       -14521.45137
     73       2.00000        -460.388500       -12527.80848
     74       2.00000        -460.388499       -12527.80845
     75       2.00000        -460.388496       -12527.80838
     76       2.00000        -460.388475       -12527.80782
     77       2.00000        -460.388474       -12527.80778
     78       2.00000        -460.388471       -12527.80771
     79       2.00000        -460.388312       -12527.80338
     80       2.00000        -460.388312       -12527.80336
     81       2.00000        -460.388308       -12527.80326
     82       2.00000        -460.388285       -12527.80264
     83       2.00000        -460.388284       -12527.80263
     84       2.00000        -460.388281       -12527.80252
     85       2.00000        -460.388182       -12527.79985
     86       2.00000        -460.388182       -12527.79983
     87       2.00000        -460.388178       -12527.79973
     88       2.00000        -460.388178       -12527.79973
     89       2.00000        -460.388178       -12527.79972
     90       2.00000        -460.388174       -12527.79962
     91       2.00000        -460.387827       -12527.79019
     92       2.00000        -460.387827       -12527.79019
     93       2.00000        -460.387827       -12527.79019
     94       2.00000        -460.387827       -12527.79019
     95       2.00000        -460.387824       -12527.79010
     96       2.00000        -460.387824       -12527.79010
     97       2.00000        -460.387453       -12527.77999
     98       2.00000        -460.387450       -12527.77992
     99       2.00000        -460.387448       -12527.77987
    100       2.00000        -460.387447       -12527.77985
    101       2.00000        -460.387446       -12527.77981
    102       2.00000        -460.387446       -12527.77981
    103       2.00000        -460.387443       -12527.77974
    104       2.00000        -460.387442       -12527.77971
    105       2.00000        -460.387440       -12527.77965
    106       2.00000        -460.387372       -12527.77781
    107       2.00000        -460.387364       -12527.77759
    108       2.00000        -460.387364       -12527.77757
    109       2.00000        -460.387313       -12527.77620
    110       2.00000        -460.387309       -12527.77607
    111       2.00000        -460.387306       -12527.77601
    112       2.00000        -460.387259       -12527.77472
    113       2.00000        -460.387254       -12527.77459
    114       2.00000        -460.387252       -12527.77453
    115       2.00000        -460.387225       -12527.77379
    116       2.00000        -460.387217       -12527.77358
    117       2.00000        -460.387216       -12527.77357
    118       2.00000        -460.387174       -12527.77241
    119       2.00000        -460.387170       -12527.77230
    120       2.00000        -460.387168       -12527.77224
    121       2.00000        -460.386765       -12527.76128
    122       2.00000        -460.386764       -12527.76126
    123       2.00000        -460.386764       -12527.76126
    124       2.00000        -460.386724       -12527.76015
    125       2.00000        -460.386723       -12527.76014
    126       2.00000        -460.386723       -12527.76014
    127       2.00000        -460.386572       -12527.75603
    128       2.00000        -460.386572       -12527.75603
    129       2.00000        -460.386572       -12527.75603
    130       2.00000        -460.386572       -12527.75603
    131       2.00000        -460.386572       -12527.75603
    132       2.00000        -460.386572       -12527.75603
    133       2.00000        -460.386512       -12527.75439
    134       2.00000        -460.386510       -12527.75435
    135       2.00000        -460.386508       -12527.75429
    136       2.00000        -460.386495       -12527.75394
    137       2.00000        -460.386494       -12527.75390
    138       2.00000        -460.386492       -12527.75384
    139       2.00000        -460.386479       -12527.75350
    140       2.00000        -460.386479       -12527.75349
    141       2.00000        -460.386478       -12527.75346
    142       2.00000        -460.386477       -12527.75345
    143       2.00000        -460.386475       -12527.75340
    144       2.00000        -460.386475       -12527.75339
    145       2.00000        -460.386155       -12527.74468
    146       2.00000        -460.386155       -12527.74468
    147       2.00000        -460.386155       -12527.74468
    148       2.00000        -460.386155       -12527.74468
    149       2.00000        -460.386155       -12527.74468
    150       2.00000        -460.386155       -12527.74468
    151       2.00000        -460.386155       -12527.74468
    152       2.00000        -460.386155       -12527.74468
    153       2.00000        -460.386155       -12527.74468
    154       2.00000        -460.386155       -12527.74468
    155       2.00000        -460.386155       -12527.74468
    156       2.00000        -460.386155       -12527.74468
    157       2.00000        -460.386155       -12527.74468
    158       2.00000        -460.386155       -12527.74468
    159       2.00000        -460.386155       -12527.74468
    160       2.00000        -460.386155       -12527.74468
    161       2.00000        -460.386155       -12527.74468
    162       2.00000        -460.386155       -12527.74468
    163       2.00000        -460.386155       -12527.74468
    164       2.00000        -460.386155       -12527.74468
    165       2.00000        -460.386153       -12527.74462
    166       2.00000        -460.386153       -12527.74462
    167       2.00000        -460.386153       -12527.74462
    168       2.00000        -460.386153       -12527.74462
    169       2.00000        -460.386153       -12527.74462
    170       2.00000        -460.386153       -12527.74462
    171       2.00000        -460.386153       -12527.74462
    172       2.00000        -460.386153       -12527.74462
    173       2.00000        -460.386153       -12527.74462
    174       2.00000        -460.386153       -12527.74462
    175       2.00000        -460.385320       -12527.72197
    176       2.00000        -460.385320       -12527.72197
    177       2.00000        -460.385317       -12527.72188
    178       2.00000        -460.385317       -12527.72188
    179       2.00000        -460.385317       -12527.72188
    180       2.00000        -460.385317       -12527.72188
    181       2.00000        -124.236054        -3380.63503
    182       2.00000        -124.236029        -3380.63435
    183       2.00000        -124.235860        -3380.62976
    184       2.00000        -124.235833        -3380.62901
    185       2.00000        -124.235728        -3380.62617
    186       2.00000        -124.235724        -3380.62605
    187       2.00000        -124.235367        -3380.61635
    188       2.00000        -124.235367        -3380.61635
    189       2.00000        -124.234975        -3380.60568
    190       2.00000        -124.234973        -3380.60561
    191       2.00000        -124.234969        -3380.60552
    192       2.00000        -124.234886        -3380.60326
    193       2.00000        -124.234833        -3380.60181
    194       2.00000        -124.234777        -3380.60029
    195       2.00000        -124.234736        -3380.59918
    196       2.00000        -124.234692        -3380.59797
    197       2.00000        -124.234279        -3380.58673
    198       2.00000        -124.234237        -3380.58558
    199       2.00000        -124.234083        -3380.58140
    200       2.00000        -124.234083        -3380.58140
    201       2.00000        -124.234017        -3380.57960
    202       2.00000        -124.234000        -3380.57915
    203       2.00000        -124.233984        -3380.57870
    204       2.00000        -124.233983        -3380.57869
    205       2.00000        -124.233655        -3380.56975
    206       2.00000        -124.233655        -3380.56975
    207       2.00000        -124.233655        -3380.56975
    208       2.00000        -124.233655        -3380.56975
    209       2.00000        -124.233655        -3380.56975
    210       2.00000        -124.233655        -3380.56975
    211       2.00000        -124.233655        -3380.56975
    212       2.00000        -124.233655        -3380.56975
    213       2.00000        -124.233655        -3380.56975
    214       2.00000        -124.233655        -3380.56975
    215       2.00000        -124.232798        -3380.54645
    216       2.00000        -124.232798        -3380.54645
    217       2.00000        -103.453485        -2815.11255
    218       2.00000        -103.453476        -2815.11233
    219       2.00000        -103.453460        -2815.11189
    220       2.00000        -103.453455        -2815.11174
    221       2.00000        -103.453450        -2815.11161
    222       2.00000        -103.453430        -2815.11107
    223       2.00000        -103.453293        -2815.10732
    224       2.00000        -103.453287        -2815.10716
    225       2.00000        -103.453264        -2815.10656
    226       2.00000        -103.453259        -2815.10642
    227       2.00000        -103.453255        -2815.10631
    228       2.00000        -103.453228        -2815.10557
    229       2.00000        -103.453159        -2815.10369
    230       2.00000        -103.453155        -2815.10357
    231       2.00000        -103.453154        -2815.10356
    232       2.00000        -103.453151        -2815.10346
    233       2.00000        -103.453125        -2815.10276
    234       2.00000        -103.453121        -2815.10264
    235       2.00000        -103.452794        -2815.09375
    236       2.00000        -103.452794        -2815.09375
    237       2.00000        -103.452794        -2815.09375
    238       2.00000        -103.452794        -2815.09375
    239       2.00000        -103.452768        -2815.09304
    240       2.00000        -103.452768        -2815.09304
[...]
  | Density mixing                             :        0.007 s           0.007 s
  | Hartree multipole update                   :        0.008 s           0.008 s
  | Hartree multipole summation                :        1.273 s           1.276 s
  | Integration                                :        0.510 s           0.511 s
  | Solution of K.-S. eqns.                    :        0.560 s           0.561 s
  | Total energy evaluation                    :        0.002 s           0.002 s

  Partial memory accounting:
  | Current value for overall tracked memory usage on task 0  :          48.137 MB
  | Peak value for overall tracked memory usage on task 0     :          69.635 MB after allocating wave_pulay
  | Largest tracked array allocation on task 0 so far         :          31.535 MB  when allocating +KS_eigenvector
  Note:  These values currently only include a subset of arrays which are explicitly tracked.
  The "true" memory usage will be greater.
------------------------------------------------------------
  |------------------------------------------
  | Final ELSI Output
  |------------------------------------------
  | Number of basis functions :         2173
  | Number of electrons       :       2904.0
  | Number of spins           :            1
  | Number of k-points        :            1
  | Number of states          :         1814
  | Solver                    :         ELPA
  | Parallel mode             :   MULTI_PROC
  | Matrix format             :  BLACS_DENSE
  | Matrix sparsity           :        0.665
  |------------------------------------------
  | ELSI Project (c)  elsi-interchange.org
  |------------------------------------------

  Energy and forces in a compact form:
  | Total energy uncorrected      :         -0.192932639402807E+08 eV
  | Total energy corrected        :         -0.192932639402807E+08 eV  <-- do not rely on this value for anything but (periodic) metals
  | Electronic free energy        :         -0.192932639402807E+08 eV
  Total atomic forces (unitary forces were cleaned, then relaxation constraints were applied) [eV/Ang]:
  |   1          0.311040643107678E-02         -0.390117221722861E-02         -0.897475657964594E-03
  |   2          0.179521908782549E-02         -0.330729801988362E-02          0.444616260099538E-02
  |   3          0.102433696472810E-02         -0.141113019903367E-02         -0.583505607326196E-03
  |   4          0.211073680465799E-02         -0.143076031968494E-03         -0.161031037286021E-02
  |   5          0.109252801478626E-02          0.522430343315120E-03         -0.525077822748130E-03
  |   6          0.224174259557793E-02         -0.210793882277482E-02         -0.302797148593692E-03
  |   7          0.497386596453913E-03          0.157480656441669E-02         -0.838515693184508E-04
  |   8          0.839728867555790E-03         -0.148338011864976E-02          0.253861404206345E-02
  |   9         -0.371803641867983E-03         -0.982401381489739E-03          0.299708583052766E-02
  |  10          0.316645981776714E-02         -0.396716947966045E-02          0.127839945099299E-03
  |  11          0.432133152081085E-02         -0.387066721523836E-02         -0.760831549257699E-02
  |  12         -0.293489075943881E-02          0.140398794548413E-02          0.524866220260879E-02
  |  13         -0.407300330140040E-03          0.406317721358153E-03          0.444304274220676E-03
  |  14         -0.440689372814178E-02          0.424381605007674E-02          0.549036865203506E-02
  |  15          0.116761528594330E-03         -0.101726019040508E-02          0.312783628726645E-02
  |  16          0.418222304966954E-03         -0.147216981960736E-02          0.253989777934050E-02
  |  17          0.205246842606673E-02         -0.368707645444107E-03          0.991179486983160E-03
  |  18          0.249729764180873E-02         -0.374489705834328E-02          0.423192758869938E-02
  |  19         -0.393190196353560E-03          0.194421691389268E-02          0.327665273368576E-02
  |  20          0.249342894654029E-02         -0.132934238033384E-02          0.388505412022902E-02
  |  21         -0.285793116132761E-02         -0.286322895739117E-02         -0.281272307098179E-02
  |  22          0.000000000000000E+00          0.000000000000000E+00          0.000000000000000E+00
  |  23          0.000000000000000E+00          0.000000000000000E+00          0.000000000000000E+00
  |  24          0.000000000000000E+00          0.000000000000000E+00          0.000000000000000E+00
  |  25          0.000000000000000E+00          0.000000000000000E+00          0.000000000000000E+00
  |  26          0.000000000000000E+00          0.000000000000000E+00          0.000000000000000E+00
  |  27          0.000000000000000E+00          0.000000000000000E+00          0.000000000000000E+00
  |  28          0.000000000000000E+00          0.000000000000000E+00          0.000000000000000E+00
  |  29          0.000000000000000E+00          0.000000000000000E+00          0.000000000000000E+00
  |  30          0.000000000000000E+00          0.000000000000000E+00          0.000000000000000E+00
  |  31          0.000000000000000E+00          0.000000000000000E+00          0.000000000000000E+00
  |  32          0.000000000000000E+00          0.000000000000000E+00          0.000000000000000E+00
  |  33          0.000000000000000E+00          0.000000000000000E+00          0.000000000000000E+00
  |  34          0.000000000000000E+00          0.000000000000000E+00          0.000000000000000E+00
  |  35          0.000000000000000E+00          0.000000000000000E+00          0.000000000000000E+00
  |  36         -0.902365194781325E-03          0.159706738211850E-02          0.504389165177709E-02
  |  37         -0.102779994932738E-02          0.467315114068266E-03          0.666739803660391E-03
  |  38         -0.331773777583407E-03          0.199564030916310E-02         -0.669838513692357E-02
  |  39         -0.272073350541446E-02          0.551607452478316E-03         -0.864382431408102E-02
  |  40          0.000000000000000E+00          0.000000000000000E+00          0.000000000000000E+00
  |  41          0.000000000000000E+00          0.000000000000000E+00          0.000000000000000E+00
  |  42          0.000000000000000E+00          0.000000000000000E+00          0.000000000000000E+00
  |  43          0.000000000000000E+00          0.000000000000000E+00          0.000000000000000E+00
  |  44          0.000000000000000E+00          0.000000000000000E+00          0.000000000000000E+00
  |  45          0.000000000000000E+00          0.000000000000000E+00          0.000000000000000E+00
  |  46          0.000000000000000E+00          0.000000000000000E+00          0.000000000000000E+00
  |  47          0.000000000000000E+00          0.000000000000000E+00          0.000000000000000E+00
  |  48          0.000000000000000E+00          0.000000000000000E+00          0.000000000000000E+00
  |  49          0.000000000000000E+00          0.000000000000000E+00          0.000000000000000E+00
  |  50          0.000000000000000E+00          0.000000000000000E+00          0.000000000000000E+00
  |  51          0.000000000000000E+00          0.000000000000000E+00          0.000000000000000E+00
  |  52          0.000000000000000E+00          0.000000000000000E+00          0.000000000000000E+00
  |  53          0.000000000000000E+00          0.000000000000000E+00          0.000000000000000E+00

  ------------------------------------ 
  Start decomposition of the XC Energy 
  ------------------------------------ 
  X and C from original XC functional choice 
  Hartree-Fock Energy :          0.000000000 Ha              0.000000000 eV
  X Energy            :     -13119.188133569 Ha        -356991.272630396 eV
  C Energy            :       -176.433203447 Ha          -4800.991737559 eV
  Total XC Energy     :     -13295.621337016 Ha        -361792.264367955 eV
  ------------------------------------ 
  LDA X and C from self-consistent density 
  X Energy LDA        :     -12590.153702906 Ha        -342595.513323881 eV
  C Energy LDA        :       -301.762777664 Ha          -8211.382970798 eV
  ------------------------------------ 
  End decomposition of the XC Energy 
  ------------------------------------ 

------------------------------------------------------------
  Relaxation / MD: End force evaluation.       :  max(cpu_time)    wall_clock(cpu1)
  | Time for this force evaluation             :       30.073 s          30.162 s

------------------------------------------------------------
  Geometry optimization: Attempting to predict improved coordinates.

  Net remaining forces (excluding translations, rotations) in present geometry:
  Maximum force component is  0.864382E-02 eV/A.
  Present geometry is converged.

------------------------------------------------------------
  Final atomic structure:
                         x [A]             y [A]             z [A]
            atom        -1.94247853        2.06560521       11.47313554  N
            atom        -2.69062270        3.14709809       11.68368851  C
            atom        -1.73655004        1.97154398       10.10091956  C
            atom        -2.38223574        3.02300266        9.48913807  C
            atom        -2.97559642        3.74996361       10.50232877  N
            atom        -3.02411821        3.50698423       12.65100639  H
            atom        -2.46170051        3.30480688        8.44557573  H
            atom        -0.95865260        0.87231921        9.45435202  C
            atom         0.02427310        0.77740407        9.94533813  H
            atom        -0.77657326        1.14071921        8.40148493  H
            atom        -1.69238768       -0.47380056        9.49599969  C
            atom        -1.74147340       -0.84673179       10.53273260  H
            atom        -2.71959621       -0.35321762        9.12590528  H
            atom        -1.01432735       -1.45975496        8.60958064  N
            atom        -0.04048253       -1.58706876        8.90446545  H
            atom        -1.46203655       -2.37567025        8.70703679  H
            atom        -3.52165505        4.59925987       10.38918455  H
            atom        -1.02980657       -1.00393877        6.37976049  Au
            atom        -0.97393919        0.99190998        4.51128653  Au
            atom         0.91144651       -1.26636758        4.41729513  Au
            atom        -1.94002855       -1.77122554        3.94703451  Au
            atom        -0.98364858        2.90868289        2.48397374  Au
            atom         0.89728549        0.72320790        2.44342713  Au
            atom         2.77821955       -1.46226708        2.40288050  Au
            atom        -1.90122553        0.22622760        1.95639062  Au
            atom        -0.02029146       -1.95924740        1.91584399  Au
            atom        -2.81880248       -2.45622772        1.42880748  Au
            atom         0.91757695        2.68245530        0.32758314  Au
            atom         2.79851101        0.49698031        0.28703651  Au
            atom        -1.88093406        2.18547499       -0.15945337  Au
            atom         0.00000000        0.00000000       -0.20000000  Au
            atom         1.88093406       -2.18547499       -0.24054662  Au
            atom        -2.79851101       -0.49698032       -0.68703650  Au
            atom        -0.91757696       -2.68245530       -0.72758313  Au
            atom        -3.78215957        2.41170258        1.99693724  Au
            atom        -1.27951999        0.85791983       13.20830410  Au
            atom        -0.20915325       -0.91615415       14.92734149  Au
            atom         0.15424323        1.96254198       15.31423364  Au
            atom        -2.54198333        0.79503772       15.64890990  Au
            atom         0.80067538       -2.72226339       16.83960063  Au
            atom         1.18422876        0.11978134       17.14213394  Au
            atom         1.56778214        2.96182608       17.44466725  Au
            atom        -1.43900279       -1.02624961       17.49016710  Au
            atom        -1.05544942        1.81579512       17.79270041  Au
            atom        -3.67868099        0.66976417       18.14073358  Au
            atom         2.23967818       -1.69601378       19.11818365  Au
            atom         2.62323157        1.14603095       19.42071695  Au
            atom        -0.38355337       -2.84204474       19.46621680  Au
            atom         0.00000000        0.00000000       19.76875011  Au
            atom         0.38355338        2.84204474       20.07128342  Au
            atom        -2.62323155       -1.14603095       20.11678328  Au
            atom        -2.23967818        1.69601379       20.41931659  Au
            atom        -1.82255617       -3.86829434       17.18763380  Au
------------------------------------------------------------

------------------------------------------------------------------------------
  Final output of selected total energy values:

  The following output summarizes some interesting total energy values
  at the end of a run (AFTER all relaxation, molecular dynamics, etc.).

  | Total energy of the DFT / Hartree-Fock s.c.f. calculation      :      -19293263.940280691 eV
  | Final zero-broadening corrected energy (caution - metals only) :      -19293263.940280691 eV
  | For reference only, the value of 1 Hartree used in FHI-aims is :             27.211384500 eV

  Before relying on these values, please be sure to understand exactly which
  total energy value is referred to by a given number. Different objects may
  all carry the same name 'total energy'. Definitions:

  Total energy of the DFT / Hartree-Fock s.c.f. calculation:
  | Note that this energy does not include ANY quantities calculated after the
  | s.c.f. cycle, in particular not ANY RPA, MP2, etc. many-body perturbation terms.

  Final zero-broadening corrected energy:
  | For metallic systems only, a broadening of the occupation numbers at the Fermi
  | level can be extrapolated back to zero broadening by an electron-gas inspired
  | formula. For all systems that are not real metals, this value can be
  | meaningless and should be avoided.

------------------------------------------------------------------------------
  Methods described in the following list of references were used in this FHI-aims run.
  If you publish the results, please make sure to cite these reference if they apply.
  FHI-aims is an academic code, and for our developers (often, Ph.D. students
  and postdocs), scientific credit in the community is essential.
  Thank you for helping us!

  For any use of FHI-aims, please cite:

    Volker Blum, Ralf Gehrke, Felix Hanke, Paula Havu, Ville Havu,
    Xinguo Ren, Karsten Reuter, and Matthias Scheffler
    'Ab initio molecular simulations with numeric atom-centered orbitals'
    Computer Physics Communications 180, 2175-2196 (2009)
    http://dx.doi.org/10.1016/j.cpc.2009.06.022


  The scalable eigensolver library ELPA was used in your run.
  ELPA is essential especially for large systems on hundreds or thousands of CPUs.
  For ELPA, please cite:

    Andreas Marek, Volker Blum, Rainer Johanni, Ville Havu, Bruno Lang,
    Thomas Auckenthaler, Alexander Heinecke, Hans-Joachim Bungartz, and Hermann Lederer,
    'The ELPA Library - Scalable Parallel Eigenvalue Solutions
    for Electronic Structure Theory and Computational Science'
    The Journal of Physics: Condensed Matter 26, 213201 (2014).
    http://dx.doi.org/10.1088/0953-8984/26/21/213201


  The ELSI infrastructure was used in your run to solve the Kohn-Sham electronic structure.
  Please check out http://elsi-interchange.org to learn more.
  If scalability is important for your project, please acknowledge ELSI by citing:

    V. W-z. Yu, F. Corsetti, A. Garcia, W. P. Huhn, M. Jacquelin, W. Jia,
    B. Lange, L. Lin, J. Lu, W. Mi, A. Seifitokaldani, A. Vazquez-Mayagoitia,
    C. Yang, H. Yang, and V. Blum
    'ELSI: A unified software interface for Kohn-Sham electronic structure solvers'
    Computer Physics Communications 222, 267-285 (2018).
    http://dx.doi.org/10.1016/j.cpc.2017.09.007


  For the real-space grid partitioning and parallelization used in this calculation, please cite:

    Ville Havu, Volker Blum, Paula Havu, and Matthias Scheffler,
    'Efficient O(N) integration for all-electron electronic structure calculation'
    'using numerically tabulated basis functions'
    Journal of Computational Physics 228, 8367-8379 (2009).
    http://dx.doi.org/10.1016/j.jcp.2009.08.008

  Of course, there are many other important community references, e.g., those cited in the
  above references. Our list is limited to references that describe implementations in the
  FHI-aims code. The reason is purely practical (length of this list) - please credit others as well.

 * A warning was issued further up regarding the accuracy of onsite integrals.
   An integral with a negative eigenvalue was among the flagged integrals.
   In most standard situations, this warning is probably harmless.
   If needed, this can be verified by adjusting the radial_multiplier flag.

------------------------------------------------------------
          Leaving FHI-aims.
          Date     :  20221012, Time     :  124154.448

          Computational steps:
          | Number of self-consistency cycles          :          103
          | Number of SCF (re)initializations          :            9
          | Number of relaxation steps                 :            8

          Detailed time accounting                     :  max(cpu_time)    wall_clock(cpu1)
          | Total time                                 :      324.780 s         325.602 s
          | Preparation time                           :        0.399 s           0.400 s
          | Boundary condition initalization           :        0.143 s           0.089 s
          | Grid partitioning                          :        1.795 s           1.796 s
          | Preloading free-atom quantities on grid    :        1.707 s           1.712 s
          | Free-atom superposition energy             :        0.327 s           0.327 s
          | Total time for integrations                :       57.672 s          57.802 s
          | Total time for solution of K.-S. equations :       60.899 s          61.044 s
          | Total time for EV reorthonormalization     :        2.233 s           2.229 s
          | Total time for density & force components  :      157.845 s         158.204 s
          | Total time for mixing                      :        0.581 s           0.582 s
          | Total time for Hartree multipole update    :        0.807 s           0.815 s
          | Total time for Hartree multipole sum       :       39.322 s          39.415 s
          | Total time for total energy evaluation     :        0.027 s           0.055 s
          | Total time for scaled ZORA corrections     :        0.000 s           0.000 s

          Partial memory accounting:
          | Residual value for overall tracked memory usage across tasks :           0.000 MB (should be 0.000 MB)
          | Peak values for overall tracked memory usage (after allocating wave_pulay):
          |   Minimum:       69.513 MB (on task  3)
          |   Maximum:       70.186 MB (on task  6)
          |   Average:       69.962 MB
          | Largest tracked array allocation (+KS_eigenvector):
          |   Minimum:       31.535 MB (on task  1)
          |   Maximum:       31.535 MB (on task  1)
          |   Average:       31.535 MB
          Note:  These values currently only include a subset of arrays which are explicitly tracked.
          The "true" memory usage will be greater.

          Have a nice day.
------------------------------------------------------------
