  MPI-parallelism will be employed.
------------------------------------------------------------
          Invoking FHI-aims ...
          Version 171221_1
          Compiled on 2020/07/14 at 14:43:00 on host scc1.

          When using FHI-aims, please cite the following reference:

          Volker Blum, Ralf Gehrke, Felix Hanke, Paula Havu,
          Ville Havu, Xinguo Ren, Karsten Reuter, and Matthias Scheffler,
          'Ab Initio Molecular Simulations with Numeric Atom-Centered Orbitals',
          Computer Physics Communications 180, 2175-2196 (2009)

          For any questions about FHI-aims, please visit the aimsclub website
          with its forums and wiki. Contributions to both the forums and the
          wiki are warmly encouraged - they are for you, and everyone is welcome there.

------------------------------------------------------------



  Date     :  20221012, Time     :  124845.200
  Time zero on CPU 1             :   0.668020000000000E-01  s.
  Internal wall clock time zero  :           434810925.200  s.

  FHI-aims created a unique identifier for this run for later identification
  aims_uuid : 274BD509-942C-430F-ABC7-3EABFCD8699B

  Using       16 parallel tasks.
  Task        0 on host scc-gk1 reporting.
  Task        1 on host scc-gk1 reporting.
  Task        2 on host scc-gk1 reporting.
  Task        3 on host scc-gk1 reporting.
  Task        4 on host scc-gk1 reporting.
  Task        5 on host scc-gk1 reporting.
  Task        6 on host scc-gk1 reporting.
  Task        7 on host scc-gk1 reporting.
  Task        8 on host scc-gk1 reporting.
  Task        9 on host scc-gk1 reporting.
  Task       10 on host scc-gk1 reporting.
  Task       11 on host scc-gk1 reporting.
  Task       12 on host scc-gk1 reporting.
  Task       13 on host scc-gk1 reporting.
  Task       14 on host scc-gk1 reporting.
  Task       15 on host scc-gk1 reporting.

  Performing system and environment tests:
  | Environment variable OMP_NUM_THREADS correctly set to 1.
  | Stacksize not measured: no C compiler
  | Checking for scalapack...
  | Testing pdtran()...
  | All pdtran() tests passed.

  Obtaining array dimensions for all initial allocations:
  
  -----------------------------------------------------------------------
  Parsing control.in (first pass over file, find array dimensions only).
  The contents of control.in will be repeated verbatim below
  unless switched off by setting 'verbatim_writeout .false.' .
  in the first line of control.in .
  -----------------------------------------------------------------------
  
  ##################################################
  #
  #  input file : OMepyz
  #
  ##################################################
  #
  #  Physical model
  #
    xc                 pbe
    spin               none
    charge             0
  #  KS_method	     lapack_fast
  #
  #  SCF convergence
  #
    occupation_type    gaussian 0.01
    mixer              pulay
      n_max_pulay        10
      charge_mix_param   0.2
    sc_accuracy_rho    1E-4
    sc_accuracy_eev    1E-2
    sc_accuracy_etot   1E-6
  # sc_accuracy_forces 1E-4
    sc_iter_limit      500
  #
  #  Relaxation
  #
    relax_geometry   bfgs 1.e-2
  #
  
  #  output an overlap matrix & wave functions
  #  to enable a post-processor transport calculation :
  #   output aitranss
  
  #  to enable restart of the calculation
  #   restart aims.restart
  
  #  scalar-relativistic treatment
     relativistic atomic_zora scalar
  #################################################################################
  #
  #  FHI-aims code project
  #  VB, Fritz-Haber Institut, 2009
  #
  #  Suggested "light" defaults for H atom (to be pasted into control.in file)
  #  Be sure to double-check any results obtained with these settings for post-processing,
  #  e.g., with the "tight" defaults and larger basis sets.
  #
  ################################################################################
    species        H
  #     global species definitions
      nucleus             1
      mass                1.00794
  #
      l_hartree           4
  #
      cut_pot             3.5  1.5  1.0
      basis_dep_cutoff    1e-4
  #
      radial_base         24 5.0
      radial_multiplier   1
      angular_grids       specified
        division   0.2421   50
        division   0.3822  110
        division   0.4799  194
        division   0.5341  302
  #      division   0.5626  434
  #      division   0.5922  590
  #      division   0.6542  770
  #      division   0.6868 1202
  #      outer_grid  770
        outer_grid  302
  ################################################################################
  #
  #  Definition of "minimal" basis
  #
  ################################################################################
  #     valence basis states
      valence      1  s   1.
  #     ion occupancy
      ion_occ      1  s   0.5
  ################################################################################
  #
  #  Suggested additional basis functions. For production calculations,
  #  uncomment them one after another (the most important basis functions are
  #  listed first).
  #
  #  Basis constructed for dimers: 0.5 A, 0.7 A, 1.0 A, 1.5 A, 2.5 A
  #
  ################################################################################
  #  "First tier" - improvements: -1014.90 meV to -62.69 meV
       hydro 2 s 2.1
       hydro 2 p 3.5
  #  "Second tier" - improvements: -12.89 meV to -1.83 meV
  #     hydro 1 s 0.85
  #     hydro 2 p 3.7
  #     hydro 2 s 1.2
  #     hydro 3 d 7
  #  "Third tier" - improvements: -0.25 meV to -0.12 meV
  #     hydro 4 f 11.2
  #     hydro 3 p 4.8
  #     hydro 4 d 9
  #     hydro 3 s 3.2
  ################################################################################
  #
  #  FHI-aims code project
  #  VB, Fritz-Haber Institut, 2009
  #
  #  Suggested "light" defaults for C atom (to be pasted into control.in file)
  #  Be sure to double-check any results obtained with these settings for post-processing,
  #  e.g., with the "tight" defaults and larger basis sets.
  #
  ################################################################################
    species        C
  #     global species definitions
      nucleus             6
      mass                12.0107
  #
      l_hartree           4
  #
      cut_pot             3.5  1.5  1.0
      basis_dep_cutoff    1e-4
  #
      radial_base         34 5.0
      radial_multiplier   1
      angular_grids specified
        division   0.3326   50
        division   0.5710  110
        division   0.7727  194
        division   0.8772  302
  #      division   0.9334  434
  #      division   0.9625  590
  #      division   0.9924  770
  #      division   1.0230  974
  #      division   1.4589 1202
  #     outer_grid  974
       outer_grid 302
  ################################################################################
  #
  #  Definition of "minimal" basis
  #
  ################################################################################
  #     valence basis states
      valence      2  s   2.
      valence      2  p   2.
  #     ion occupancy
      ion_occ      2  s   1.
      ion_occ      2  p   1.
  ################################################################################
  #
  #  Suggested additional basis functions. For production calculations,
  #  uncomment them one after another (the most important basis functions are
  #  listed first).
  #
  #  Constructed for dimers: 1.0 A, 1.25 A, 1.5 A, 2.0 A, 3.0 A
  #
  ################################################################################
  #  "First tier" - improvements: -1214.57 meV to -155.61 meV
       hydro 2 p 1.7
       hydro 3 d 6
       hydro 2 s 4.9
  #  "Second tier" - improvements: -67.75 meV to -5.23 meV
  #     hydro 4 f 9.8
  #     hydro 3 p 5.2
  #     hydro 3 s 4.3
  #     hydro 5 g 14.4
  #     hydro 3 d 6.2
  #  "Third tier" - improvements: -2.43 meV to -0.60 meV
  #     hydro 2 p 5.6
  #     hydro 2 s 1.4
  #     hydro 3 d 4.9
  #     hydro 4 f 11.2
  #  "Fourth tier" - improvements: -0.39 meV to -0.18 meV
  #     hydro 2 p 2.1
  #     hydro 5 g 16.4
  #     hydro 4 d 13.2
  #     hydro 3 s 13.6
  #     hydro 4 f 17.6
  #  Further basis functions - improvements: -0.08 meV and below
  #     hydro 3 s 2
  #     hydro 3 p 6
  #     hydro 4 d 20
  ################################################################################
  #
  #  FHI-aims code project
  #  VB, Fritz-Haber Institut, 2009
  #
  #  Suggested "light" defaults for N atom (to be pasted into control.in file)
  #  Be sure to double-check any results obtained with these settings for post-processing,
  #  e.g., with the "tight" defaults and larger basis sets.
  #
  ################################################################################
    species        N
  #     global species definitions
      nucleus             7
      mass                14.0067
  #
      l_hartree           4
  #
      cut_pot             3.5  1.5  1.0
      basis_dep_cutoff    1e-4
  #
      radial_base         35 5.0
      radial_multiplier   1
      angular_grids       specified
        division   0.2599   50
        division   0.4601  110
        division   0.5885  194
        division   0.6503  302
  #      division   0.6939  434
  #      division   0.7396  590
  #      division   0.7632  770
  #      division   0.8122  974
  #      division   1.1604 1202
  #      outer_grid  974
        outer_grid  302
  ################################################################################
  #
  #  Definition of "minimal" basis
  #
  ################################################################################
  #     valence basis states
      valence      2  s   2.
      valence      2  p   3.
  #     ion occupancy
      ion_occ      2  s   1.
      ion_occ      2  p   2.
  ################################################################################
  #
  #  Suggested additional basis functions. For production calculations,
  #  uncomment them one after another (the most important basis functions are
  #  listed first).
  #
  #  Constructed for dimers: 1.0 A, 1.1 A, 1.5 A, 2.0 A, 3.0 A
  #
  ################################################################################
  #  "First tier" - improvements: -1193.42 meV to -220.60 meV
       hydro 2 p 1.8
       hydro 3 d 6.8
       hydro 3 s 5.8
  #  "Second tier" - improvements: -80.21 meV to -6.86 meV
  #     hydro 4 f 10.8
  #     hydro 3 p 5.8
  #     hydro 1 s 0.8
  #     hydro 5 g 16
  #     hydro 3 d 4.9
  #  "Third tier" - improvements: -4.29 meV to -0.53 meV
  #     hydro 3 s 16
  #     ionic 2 p auto
  #     hydro 3 d 6.6
  #     hydro 4 f 11.6
  #  "Fourth tier" - improvements: -0.75 meV to -0.25 meV
  #     hydro 2 p 4.5
  #     hydro 2 s 2.4
  #     hydro 5 g 14.4
  #     hydro 4 d 14.4
  #     hydro 4 f 16.8
  # Further basis functions - -0.21 meV and below
  #     hydro 3 p 14.8
  #     hydro 3 s 4.4
  #     hydro 3 d 19.6
  #     hydro 5 g 12.8
  ################################################################################
  #
  #  FHI-aims code project
  #  VB, Fritz-Haber Institut, 2009
  #
  #  Suggested "light" defaults for O atom (to be pasted into control.in file)
  #  Be sure to double-check any results obtained with these settings for post-processing,
  #  e.g., with the "tight" defaults and larger basis sets.
  #
  ################################################################################
    species        O
  #     global species definitions
      nucleus             8
      mass                15.9994
  #
      l_hartree           4
  #
      cut_pot             3.5  1.5  1.0
      basis_dep_cutoff    1e-4
  #
      radial_base         36 5.0
      radial_multiplier   1
       angular_grids specified
        division   0.2659   50
        division   0.4451  110
        division   0.6052  194
        division   0.7543  302
  #      division   0.8014  434
  #      division   0.8507  590
  #      division   0.8762  770
  #      division   0.9023  974
  #      division   1.2339 1202
  #      outer_grid 974
        outer_grid 302
  ################################################################################
  #
  #  Definition of "minimal" basis
  #
  ################################################################################
  #     valence basis states
      valence      2  s   2.
      valence      2  p   4.
  #     ion occupancy
      ion_occ      2  s   1.
      ion_occ      2  p   3.
  ################################################################################
  #
  #  Suggested additional basis functions. For production calculations,
  #  uncomment them one after another (the most important basis functions are
  #  listed first).
  #
  #  Constructed for dimers: 1.0 A, 1.208 A, 1.5 A, 2.0 A, 3.0 A
  #
  ################################################################################
  #  "First tier" - improvements: -699.05 meV to -159.38 meV
       hydro 2 p 1.8
       hydro 3 d 7.6
       hydro 3 s 6.4
  #  "Second tier" - improvements: -49.91 meV to -5.39 meV
  #     hydro 4 f 11.6
  #     hydro 3 p 6.2
  #     hydro 3 d 5.6
  #     hydro 5 g 17.6
  #     hydro 1 s 0.75
  #  "Third tier" - improvements: -2.83 meV to -0.50 meV
  #     ionic 2 p auto
  #     hydro 4 f 10.8
  #     hydro 4 d 4.7
  #     hydro 2 s 6.8
  #  "Fourth tier" - improvements: -0.40 meV to -0.12 meV
  #     hydro 3 p 5
  #     hydro 3 s 3.3
  #     hydro 5 g 15.6
  #     hydro 4 f 17.6
  #     hydro 4 d 14
  # Further basis functions - -0.08 meV and below
  #     hydro 3 s 2.1
  #     hydro 4 d 11.6
  #     hydro 3 p 16
  #     hydro 2 s 17.2
  ################################################################################
    species        Au
  #     global species definitions
      nucleus             79
      mass                196.966569
  #
      l_hartree           4
  #
      cut_pot             3.5  1.5  1.0
      basis_dep_cutoff    1e-4
  #
      radial_base         73 5.0
      radial_multiplier   1
      angular_grids specified
        division   0.5066   50
        division   0.9861  110
        division   1.2821  194
        division   1.5344  302
  #      division   2.0427  434
  #      division   2.1690  590
  #      division   2.2710  770
  #      division   2.3066  974
  #      division   2.7597 1202
  #      outer_grid 974
        outer_grid 302
  ################################################################################
  #
  #  Definition of "minimal" basis
  #
  ################################################################################
  #     valence basis states
      valence      6  s   1.
      valence      5  p   6.
      valence      5  d  10.
      valence      4  f  14.
  #     ion occupancy
      ion_occ     6  s   0.
      ion_occ     5  p   6.
      ion_occ     5  d   9.
      ion_occ     4  f   14.
  ################################################################################
  #
  #  Suggested additional basis functions. For production calculations,
  #  uncomment them one after another (the most important basis functions are
  #  listed first).
  #
  #  Constructed for dimers: 2.10, 2.45, 3.00, 4.00 AA
  #
  ################################################################################
  #  "First tier" - max. impr. -161.60  meV, min. impr. -4.53 meV
       ionic 6 p auto
       hydro 4 f 7.4
       ionic 6 s auto
  #     hydro 5 g 10
  #     hydro 6 h 12.8
       hydro 3 d 2.5
  #  "Second tier" - max. impr. -2.46  meV, min. impr. -0.28 meV
  #     hydro 5 f 14.8
  #     hydro 4 d 3.9
  #     hydro 3 p 3.3
  #     hydro 1 s 0.45
  #     hydro 5 g 16.4
  #     hydro 6 h 13.6
  #  "Third tier" - max. impr. -0.49  meV, min. impr. -0.09 meV
  #     hydro 4 f 5.2
  #     hydro 4 d 5
  #     hydro 5 g 8
  #     hydro 5 p 8.2
  #     hydro 6 d 12.4
  #     hydro 6 s 14.8
  #  Further basis functions: -0.08 meV and below
  #     hydro 5 f 18.8
  #     hydro 5 g 20
  #    hydro 5 g 15.2
  
  
  -----------------------------------------------------------------------
  Completed first pass over input file control.in .
  -----------------------------------------------------------------------
  
  
  -----------------------------------------------------------------------
  Parsing geometry.in (first pass over file, find array dimensions only).
  The contents of geometry.in will be repeated verbatim below
  unless switched off by setting 'verbatim_writeout .false.' .
  in the first line of geometry.in .
  -----------------------------------------------------------------------
  
  # opt: au
  atom     -2.02030297     2.29909688     11.23600543     N
  atom     -2.74627637     3.39976985     11.41408359     C
  atom     -1.83782668     2.13859443     9.87106063     C
  atom     -2.47513004     3.16904967     9.21818912     C
  atom     -3.03846279     3.95229060     10.20870108     N
  atom     -3.06189438     3.80602330     12.36871396     H
  atom     -2.56796646     3.40339075     8.16397842     H
  atom     -1.07478058     0.98359347     9.32066245     C
  atom     -0.04653107     0.99995061     9.72160208     H
  atom     -1.00076005     1.07881180     8.22517595     H
  atom     -1.73640855     -0.35589018     9.66466773     C
  atom     -1.75088660     -0.50235804     10.76190195     H
  atom     -2.77382866     -0.36943295     9.30291523     H
  atom     -1.01255281     -1.46477942     8.99514123     N
  atom     -0.04859475     -1.52003084     9.34050825     H
  atom     -1.45162542     -2.36200515     9.22007836     H
  atom     -3.57461555     4.80304078     10.06371674     H
  atom     -1.01042633     -1.20121673     6.81707245     Au
  atom     -0.97534008     0.92841773     5.00902334     Au
  atom     0.93567454     -1.30010591     4.90190464     Au
  atom     -1.95440642     -1.81656879     4.41444386     Au
  atom     -0.98364858     2.90868289     2.98397374     Au
    constrain_relaxation .true.
  atom     0.89728549     0.72320790     2.94342713     Au
    constrain_relaxation .true.
  atom     2.77821955     -1.46226708     2.9028805     Au
    constrain_relaxation .true.
  atom     -1.90122553     0.22622760     2.45639062     Au
    constrain_relaxation .true.
  atom     -0.02029146     -1.95924740     2.41584399     Au
    constrain_relaxation .true.
  atom     -2.81880248     -2.45622772     1.92880748     Au
    constrain_relaxation .true.
  atom     0.91757695     2.68245530     0.82758314     Au
    constrain_relaxation .true.
  atom     2.79851101     0.49698031     0.78703651     Au
    constrain_relaxation .true.
  atom     -1.88093406     2.18547499     0.34054663     Au
    constrain_relaxation .true.
  atom     0.00000000     0.00000000     0.3     Au
    constrain_relaxation .true.
  atom     1.88093406     -2.18547499     0.25945338     Au
    constrain_relaxation .true.
  atom     -2.79851101     -0.49698032     -0.1870365     Au
    constrain_relaxation .true.
  atom     -0.91757696     -2.68245530     -0.22758313     Au
    constrain_relaxation .true.
  atom     -3.78215957     2.41170258     2.49693724     Au
    constrain_relaxation .true.
  atom     -1.33256178     0.95292511     12.78331485     Au
  atom     -0.23310616     -0.88594622     14.42315872     Au
  atom     0.16980145     1.98730594     14.83048538     Au
  atom     -2.58024175     0.79699003     15.17772158     Au
  atom     0.80067538     -2.72226339     16.33960063     Au
    constrain_relaxation .true.
  atom     1.18422876     0.11978134     16.64213394     Au
    constrain_relaxation .true.
  atom     1.56778214     2.96182608     16.94466725     Au
    constrain_relaxation .true.
  atom     -1.43900279     -1.02624961     16.9901671     Au
    constrain_relaxation .true.
  atom     -1.05544942     1.81579512     17.29270041     Au
    constrain_relaxation .true.
  atom     -3.67868099     0.66976417     17.64073358     Au
    constrain_relaxation .true.
  atom     2.23967818     -1.69601378     18.61818365     Au
    constrain_relaxation .true.
  atom     2.62323157     1.14603095     18.92071695     Au
    constrain_relaxation .true.
  atom     -0.38355337     -2.84204474     18.9662168     Au
    constrain_relaxation .true.
  atom     0.00000000     0.00000000     19.26875011     Au
    constrain_relaxation .true.
  atom     0.38355338     2.84204474     19.57128342     Au
    constrain_relaxation .true.
  atom     -2.62323155     -1.14603095     19.61678328     Au
    constrain_relaxation .true.
  atom     -2.23967818     1.69601379     19.91931659     Au
    constrain_relaxation .true.
  atom     -1.82255617     -3.86829434     16.6876338     Au
    constrain_relaxation .true.
  
  -----------------------------------------------------------------------
  Completed first pass over input file geometry.in .
  -----------------------------------------------------------------------
  

  Basic array size parameters:
  | Number of species                 :        5
  | Number of atoms                   :       53
  | Max. basis fn. angular momentum   :        3
  | Max. atomic/ionic basis occupied n:        6
  | Max. number of basis fn. types    :        3
  | Max. radial fns per species/type  :       14
  | Max. logarithmic grid size        :     1488
  | Max. radial integration grid size :       73
  | Max. angular integration grid size:      302
  | Max. angular grid division number :        8
  | Radial grid for Hartree potential :     1488
  | Number of spin channels           :        1

------------------------------------------------------------
          Reading file control.in.
------------------------------------------------------------
  XC: Using PBE gradient-corrected functionals.
  Spin treatment: No spin polarisation.
  Charge =   0.000000E+00: Neutral system requested explicitly.
  Occupation type: Gaussian broadening, width =   0.100000E-01 eV.
  Using pulay charge density mixing.
  Pulay mixing - number of memorized iterations:   10
  Charge density mixing - mixing parameter:     0.2000
  Convergence accuracy of self-consistent charge density:  0.1000E-03
  Convergence accuracy of sum of eigenvalues:  0.1000E-01
  Convergence accuracy of total energy:  0.1000E-05
  Maximum number of s.-c. iterations  :   500
  Geometry relaxation: Modified BFGS - TRM (trust radius method, i.e., trusted quadratic extrapolation).
  Convergence accuracy for geometry relaxation: Maximum force <   0.100000E-01 eV/A.
  Scalar relativistic treatment of kinetic energy: on-site free-atom approximation to ZORA.
 
  Reading configuration options for species H                   .
  | Found nuclear charge :   1.0000
  | Found atomic mass :    1.00794000000000      amu
  | Found l_max for Hartree potential  :   4
  | Found cutoff potl. onset [A], width [A], scale factor :    3.50000    1.50000    1.00000
  | Threshold for basis-dependent cutoff potential is   0.100000E-03
  | Found data for basic radial integration grid :    24 points, outermost radius =    5.000 A
  | Found multiplier for basic radial grid :   1
  | Found angular grid specification: user-specified.
  | Specified grid contains     5 separate shells.
  | Check grid settings after all constraints further below.
  | Found free-atom valence shell :  1 s   1.000
  | Found free-ion valence shell :  1 s   0.500
  | Found hydrogenic basis function :  2 s   2.100
  | Found hydrogenic basis function :  2 p   3.500
  Species H                   : Missing cutoff potential type.
  Defaulting to exp(1/x)/(1-x)^2 type cutoff potential.
  Species H : No 'logarithmic' tag. Using default grid for free atom:
  | Default logarithmic grid data [bohr] : 0.1000E-03 0.1000E+03 0.1012E+01
  Species H : On-site basis accuracy parameter (for Gram-Schmidt orthonormalisation) not specified.
  Using default value basis_acc =  0.1000000E-03.
  Species H                   : Using default innermost maximum threshold i_radial=  2 for radial functions.
  Species H                   : Default cutoff onset for free atom density etc. : 0.35000000E+01 AA.
  Species H                   : Basic radial grid will be enhanced according to radial_multiplier =   1, to contain    24 grid points.
 
  Reading configuration options for species C                   .
  | Found nuclear charge :   6.0000
  | Found atomic mass :    12.0107000000000      amu
  | Found l_max for Hartree potential  :   4
  | Found cutoff potl. onset [A], width [A], scale factor :    3.50000    1.50000    1.00000
  | Threshold for basis-dependent cutoff potential is   0.100000E-03
  | Found data for basic radial integration grid :    34 points, outermost radius =    5.000 A
  | Found multiplier for basic radial grid :   1
  | Found angular grid specification: user-specified.
  | Specified grid contains     5 separate shells.
  | Check grid settings after all constraints further below.
  | Found free-atom valence shell :  2 s   2.000
  | Found free-atom valence shell :  2 p   2.000
  | Found free-ion valence shell :  2 s   1.000
  | Found free-ion valence shell :  2 p   1.000
  | Found hydrogenic basis function :  2 p   1.700
  | Found hydrogenic basis function :  3 d   6.000
  | Found hydrogenic basis function :  2 s   4.900
  Species C                   : Missing cutoff potential type.
  Defaulting to exp(1/x)/(1-x)^2 type cutoff potential.
  Species C : No 'logarithmic' tag. Using default grid for free atom:
  | Default logarithmic grid data [bohr] : 0.1000E-03 0.1000E+03 0.1012E+01
  Species C : On-site basis accuracy parameter (for Gram-Schmidt orthonormalisation) not specified.
  Using default value basis_acc =  0.1000000E-03.
  Species C                   : Using default innermost maximum threshold i_radial=  2 for radial functions.
  Species C                   : Default cutoff onset for free atom density etc. : 0.35000000E+01 AA.
  Species C                   : Basic radial grid will be enhanced according to radial_multiplier =   1, to contain    34 grid points.
 
  Reading configuration options for species N                   .
  | Found nuclear charge :   7.0000
  | Found atomic mass :    14.0067000000000      amu
  | Found l_max for Hartree potential  :   4
  | Found cutoff potl. onset [A], width [A], scale factor :    3.50000    1.50000    1.00000
  | Threshold for basis-dependent cutoff potential is   0.100000E-03
  | Found data for basic radial integration grid :    35 points, outermost radius =    5.000 A
  | Found multiplier for basic radial grid :   1
  | Found angular grid specification: user-specified.
  | Specified grid contains     5 separate shells.
  | Check grid settings after all constraints further below.
  | Found free-atom valence shell :  2 s   2.000
  | Found free-atom valence shell :  2 p   3.000
  | Found free-ion valence shell :  2 s   1.000
  | Found free-ion valence shell :  2 p   2.000
  | Found hydrogenic basis function :  2 p   1.800
  | Found hydrogenic basis function :  3 d   6.800
  | Found hydrogenic basis function :  3 s   5.800
  Species N                   : Missing cutoff potential type.
  Defaulting to exp(1/x)/(1-x)^2 type cutoff potential.
  Species N : No 'logarithmic' tag. Using default grid for free atom:
  | Default logarithmic grid data [bohr] : 0.1000E-03 0.1000E+03 0.1012E+01
  Species N : On-site basis accuracy parameter (for Gram-Schmidt orthonormalisation) not specified.
  Using default value basis_acc =  0.1000000E-03.
  Species N                   : Using default innermost maximum threshold i_radial=  2 for radial functions.
  Species N                   : Default cutoff onset for free atom density etc. : 0.35000000E+01 AA.
  Species N                   : Basic radial grid will be enhanced according to radial_multiplier =   1, to contain    35 grid points.
 
  Reading configuration options for species O                   .
  | Found nuclear charge :   8.0000
  | Found atomic mass :    15.9994000000000      amu
  | Found l_max for Hartree potential  :   4
  | Found cutoff potl. onset [A], width [A], scale factor :    3.50000    1.50000    1.00000
  | Threshold for basis-dependent cutoff potential is   0.100000E-03
  | Found data for basic radial integration grid :    36 points, outermost radius =    5.000 A
  | Found multiplier for basic radial grid :   1
  | Found angular grid specification: user-specified.
  | Specified grid contains     5 separate shells.
  | Check grid settings after all constraints further below.
  | Found free-atom valence shell :  2 s   2.000
  | Found free-atom valence shell :  2 p   4.000
  | Found free-ion valence shell :  2 s   1.000
  | Found free-ion valence shell :  2 p   3.000
  | Found hydrogenic basis function :  2 p   1.800
  | Found hydrogenic basis function :  3 d   7.600
  | Found hydrogenic basis function :  3 s   6.400
  Species O                   : Missing cutoff potential type.
  Defaulting to exp(1/x)/(1-x)^2 type cutoff potential.
  Species O : No 'logarithmic' tag. Using default grid for free atom:
  | Default logarithmic grid data [bohr] : 0.1000E-03 0.1000E+03 0.1012E+01
  Species O : On-site basis accuracy parameter (for Gram-Schmidt orthonormalisation) not specified.
  Using default value basis_acc =  0.1000000E-03.
  Species O                   : Using default innermost maximum threshold i_radial=  2 for radial functions.
  Species O                   : Default cutoff onset for free atom density etc. : 0.35000000E+01 AA.
  Species O                   : Basic radial grid will be enhanced according to radial_multiplier =   1, to contain    36 grid points.
 
  Reading configuration options for species Au                  .
  | Found nuclear charge :  79.0000
  | Found atomic mass :    196.966569000000      amu
  | Found l_max for Hartree potential  :   4
  | Found cutoff potl. onset [A], width [A], scale factor :    3.50000    1.50000    1.00000
  | Threshold for basis-dependent cutoff potential is   0.100000E-03
  | Found data for basic radial integration grid :    73 points, outermost radius =    5.000 A
  | Found multiplier for basic radial grid :   1
  | Found angular grid specification: user-specified.
  | Specified grid contains     5 separate shells.
  | Check grid settings after all constraints further below.
  | Found free-atom valence shell :  6 s   1.000
  | Found free-atom valence shell :  5 p   6.000
  | Found free-atom valence shell :  5 d  10.000
  | Found free-atom valence shell :  4 f  14.000
  | Found free-ion valence shell :  6 s   0.000
  | Found free-ion valence shell :  5 p   6.000
  | Found free-ion valence shell :  5 d   9.000
  | Found free-ion valence shell :  4 f  14.000
  | Found ionic basis function :  6 p , default cutoff radius.
  | Found hydrogenic basis function :  4 f   7.400
  | Found ionic basis function :  6 s , default cutoff radius.
  | Found hydrogenic basis function :  3 d   2.500
  Species Au                  : Missing cutoff potential type.
  Defaulting to exp(1/x)/(1-x)^2 type cutoff potential.
  Species Au: No 'logarithmic' tag. Using default grid for free atom:
  | Default logarithmic grid data [bohr] : 0.1000E-03 0.1000E+03 0.1012E+01
  | Will include ionic basis functions of  2.0-fold positive Au                   ion.
  Species Au: On-site basis accuracy parameter (for Gram-Schmidt orthonormalisation) not specified.
  Using default value basis_acc =  0.1000000E-03.
  Species Au                  : Using default innermost maximum threshold i_radial=  2 for radial functions.
  Species Au                  : Default cutoff onset for free atom density etc. : 0.35000000E+01 AA.
  Species Au                  : Basic radial grid will be enhanced according to radial_multiplier =   1, to contain    73 grid points.
 
  Finished reading input file 'control.in'. Consistency checks are next.
 
  MPI_IN_PLACE appears to work with this MPI implementation.
  | Keeping use_mpi_in_place .true. (see manual).
  Target number of points in a grid batch is not set. Defaulting to  100
  Method for grid partitioning is not set. Defaulting to parallel hash+maxmin partitioning.
  Batch size limit is not set. Defaulting to    200
  By default, will store active basis functions for each batch.
  If in need of memory, prune_basis_once .false. can be used to disable this option.
  communication_type for Hartree potential was not specified.
  Defaulting to calc_hartree .
  Pulay mixer: Number of initial linear mixing iterations not set.
  Defaulting to    0 iterations.
  Work space size for distributed Hartree potential not set.
  Defaulting to   0.200000E+03 MB.
  Algorithm-dependent basis array size parameters:
  | n_max_pulay                         :       10
  Presetting      1001 iterations before the initial mixing cycle
  is restarted anyway using the sc_init_iter criterion / keyword.
  Presetting a factor      1.000 between actual scf density residual
  and density convergence criterion sc_accuracy_rho below which sc_init_iter
  takes no effect.
  No maximum number of relaxation steps, defaulting to     1000
  Default initial Hessian is Lindh matrix (thres = 15.00) plus  0.200000E+01 eV/A^2 times unity.
  No maximum energy tolerance for TRM/BFGS moves, defaulting to   0.200000E-03
  No harmonic length scale. Defaulting to   0.250000E-01 A.
  No trust radius initializer. Defaulting to   0.200000E+00 A.
  Force calculation: scf convergence accuracy of forces not set.
  Defaulting to 'sc_accuracy_forces not_checked'.
  Handling of forces: Unphysical translation and rotation will be removed from forces.
  No accuracy limit for integral partition fn. given. Defaulting to  0.1000E-14.
  No threshold value for u(r) in integrations given. Defaulting to  0.1000E-05.
  No accuracy for occupation numbers given. Defaulting to  0.1000E-12.
  No threshold value for occupation numbers given. Defaulting to  0.0000E+00.
  No accuracy for fermi level given. Defaulting to  0.1000E-19.
  Maximum # of iterations to find E_F not set. Defaulting to  200.
  Preferred method for the eigenvalue solver ('KS_method') not specified in 'control.in'.
  Calling BLACS routine to test compilation state
  Since ScaLAPACK support is enabled, defaulting to 'elsi'.
  Will not use alltoall communication since running on < 1024 CPUs.
  Threshold for basis singularities not set.
  Default threshold for basis singularities:  0.1000E-04
  partition_type (choice of integration weights) for integrals was not specified.
  | Using a version of the partition function of Stratmann and coworkers ('stratmann_smoother').
  | At each grid point, the set of atoms used to build the partition table is smoothly restricted to
  | only those atoms whose free-atom density would be non-zero at that grid point.
  Partitioning for Hartree potential was not defined. Using partition_type for integrals.
  | Adjusted default value of keyword multip_moments_threshold to:       0.10000000E-11
  | This value may affect high angular momentum components of the Hartree potential in periodic systems.
  No q(lm)/r^(l+1) cutoff set for long-range Hartree potential.
  | Using default value of  0.100000E-09 .
  | Verify using the multipole_threshold keyword.
  Defaulting to new monopole extrapolation.
  Density update method: automatic selection selected.
  Geometry relaxation: A file "geometry.in.next_step" is written out by default after each step.
  | This file contains the geometry of the current relaxation step as well as
  | the current Hessian matrix needed to restart the relaxation algorithm.
  | If you do not want part or all of this information, use the keywords
  | "write_restart_geometry" or "hessian_to_restart_geometry" to switch the output off.
------------------------------------------------------------


------------------------------------------------------------
          Reading geometry description geometry.in.
------------------------------------------------------------
  Found relaxation constraint for atom     22: All coordinates fixed.
  Found relaxation constraint for atom     23: All coordinates fixed.
  Found relaxation constraint for atom     24: All coordinates fixed.
  Found relaxation constraint for atom     25: All coordinates fixed.
  Found relaxation constraint for atom     26: All coordinates fixed.
  Found relaxation constraint for atom     27: All coordinates fixed.
  Found relaxation constraint for atom     28: All coordinates fixed.
  Found relaxation constraint for atom     29: All coordinates fixed.
  Found relaxation constraint for atom     30: All coordinates fixed.
  Found relaxation constraint for atom     31: All coordinates fixed.
  Found relaxation constraint for atom     32: All coordinates fixed.
  Found relaxation constraint for atom     33: All coordinates fixed.
  Found relaxation constraint for atom     34: All coordinates fixed.
  Found relaxation constraint for atom     35: All coordinates fixed.
  Found relaxation constraint for atom     40: All coordinates fixed.
  Found relaxation constraint for atom     41: All coordinates fixed.
  Found relaxation constraint for atom     42: All coordinates fixed.
  Found relaxation constraint for atom     43: All coordinates fixed.
  Found relaxation constraint for atom     44: All coordinates fixed.
  Found relaxation constraint for atom     45: All coordinates fixed.
  Found relaxation constraint for atom     46: All coordinates fixed.
  Found relaxation constraint for atom     47: All coordinates fixed.
  Found relaxation constraint for atom     48: All coordinates fixed.
  Found relaxation constraint for atom     49: All coordinates fixed.
  Found relaxation constraint for atom     50: All coordinates fixed.
  Found relaxation constraint for atom     51: All coordinates fixed.
  Found relaxation constraint for atom     52: All coordinates fixed.
  Found relaxation constraint for atom     53: All coordinates fixed.
  Input structure read successfully.
  The structure contains       53 atoms,  and a total of       2904.000 electrons.

  Input geometry:
  | No unit cell requested.
  | Atomic structure:
  |       Atom                x [A]            y [A]            z [A]
  |    1: Species N            -2.02030297        2.29909688       11.23600543
  |    2: Species C            -2.74627637        3.39976985       11.41408359
  |    3: Species C            -1.83782668        2.13859443        9.87106063
  |    4: Species C            -2.47513004        3.16904967        9.21818912
  |    5: Species N            -3.03846279        3.95229060       10.20870108
  |    6: Species H            -3.06189438        3.80602330       12.36871396
  |    7: Species H            -2.56796646        3.40339075        8.16397842
  |    8: Species C            -1.07478058        0.98359347        9.32066245
  |    9: Species H            -0.04653107        0.99995061        9.72160208
  |   10: Species H            -1.00076005        1.07881180        8.22517595
  |   11: Species C            -1.73640855       -0.35589018        9.66466773
  |   12: Species H            -1.75088660       -0.50235804       10.76190195
  |   13: Species H            -2.77382866       -0.36943295        9.30291523
  |   14: Species N            -1.01255281       -1.46477942        8.99514123
  |   15: Species H            -0.04859475       -1.52003084        9.34050825
  |   16: Species H            -1.45162542       -2.36200515        9.22007836
  |   17: Species H            -3.57461555        4.80304078       10.06371674
  |   18: Species Au           -1.01042633       -1.20121673        6.81707245
  |   19: Species Au           -0.97534008        0.92841773        5.00902334
  |   20: Species Au            0.93567454       -1.30010591        4.90190464
  |   21: Species Au           -1.95440642       -1.81656879        4.41444386
  |   22: Species Au           -0.98364858        2.90868289        2.98397374
  |   23: Species Au            0.89728549        0.72320790        2.94342713
  |   24: Species Au            2.77821955       -1.46226708        2.90288050
  |   25: Species Au           -1.90122553        0.22622760        2.45639062
  |   26: Species Au           -0.02029146       -1.95924740        2.41584399
  |   27: Species Au           -2.81880248       -2.45622772        1.92880748
  |   28: Species Au            0.91757695        2.68245530        0.82758314
  |   29: Species Au            2.79851101        0.49698031        0.78703651
  |   30: Species Au           -1.88093406        2.18547499        0.34054663
  |   31: Species Au            0.00000000        0.00000000        0.30000000
  |   32: Species Au            1.88093406       -2.18547499        0.25945338
  |   33: Species Au           -2.79851101       -0.49698032       -0.18703650
  |   34: Species Au           -0.91757696       -2.68245530       -0.22758313
  |   35: Species Au           -3.78215957        2.41170258        2.49693724
  |   36: Species Au           -1.33256178        0.95292511       12.78331485
  |   37: Species Au           -0.23310616       -0.88594622       14.42315872
  |   38: Species Au            0.16980145        1.98730594       14.83048538
  |   39: Species Au           -2.58024175        0.79699003       15.17772158
  |   40: Species Au            0.80067538       -2.72226339       16.33960063
  |   41: Species Au            1.18422876        0.11978134       16.64213394
  |   42: Species Au            1.56778214        2.96182608       16.94466725
  |   43: Species Au           -1.43900279       -1.02624961       16.99016710
  |   44: Species Au           -1.05544942        1.81579512       17.29270041
  |   45: Species Au           -3.67868099        0.66976417       17.64073358
  |   46: Species Au            2.23967818       -1.69601378       18.61818365
  |   47: Species Au            2.62323157        1.14603095       18.92071695
  |   48: Species Au           -0.38355337       -2.84204474       18.96621680
  |   49: Species Au            0.00000000        0.00000000       19.26875011
  |   50: Species Au            0.38355338        2.84204474       19.57128342
  |   51: Species Au           -2.62323155       -1.14603095       19.61678328
  |   52: Species Au           -2.23967818        1.69601379       19.91931659
  |   53: Species Au           -1.82255617       -3.86829434       16.68763380
  |

  | The smallest distance between any two atoms is         1.01600005 AA.
  |
  | The first atom of this pair is atom number                      5 .
  | The second atom of this pair is atom number                    17 .

  Number of empty states per atom not set in control.in - providing a guess from actual geometry.
  | Total number of empty states used during s.c.f. cycle:      362
  If you use a very high smearing, use empty_states (per atom!) in control.in to increase this value.

  Structure-dependent array size parameters: 
  | Maximum number of distinct radial functions  :       39
  | Maximum number of basis functions            :     2173
  | Number of Kohn-Sham states (occupied + empty):     1814
------------------------------------------------------------

------------------------------------------------------------
          Preparing all fixed parts of the calculation.
------------------------------------------------------------
  Determining machine precision:
    2.225073858507201E-308
  Setting up grids for atomic and cluster calculations.

  Creating wave function, potential, and density for free atoms.

  Species: H

  List of occupied orbitals and eigenvalues:
    n    l              occ      energy [Ha]    energy [eV]
    1    0           1.0000        -0.237593        -6.4652


  Species: C

  List of occupied orbitals and eigenvalues:
    n    l              occ      energy [Ha]    energy [eV]
    1    0           2.0000       -10.046810      -273.3876
    2    0           2.0000        -0.503128       -13.6908
    2    1           2.0000        -0.191849        -5.2205


  Species: N

  List of occupied orbitals and eigenvalues:
    n    l              occ      energy [Ha]    energy [eV]
    1    0           2.0000       -14.143973      -384.8771
    2    0           2.0000        -0.682008       -18.5584
    2    1           3.0000        -0.259605        -7.0642


  Species: O

  List of occupied orbitals and eigenvalues:
    n    l              occ      energy [Ha]    energy [eV]
    1    0           2.0000       -18.926989      -515.0296
    2    0           2.0000        -0.880247       -23.9527
    2    1           4.0000        -0.331514        -9.0210


  Species: Au

  List of occupied orbitals and eigenvalues:
    n    l              occ      energy [Ha]    energy [eV]
    1    0           2.0000     -3256.431199    -88612.0015
    2    0           2.0000      -533.654865    -14521.4877
    3    0           2.0000      -124.232088     -3380.5271
    4    0           2.0000       -26.843821      -730.4575
    5    0           2.0000        -3.974251      -108.1449
    6    0           1.0000        -0.207180        -5.6377
    2    1           6.0000      -460.384091    -12527.6885
    3    1           6.0000      -103.448928     -2814.9886
    4    1           6.0000       -20.075789      -546.2900
    5    1           6.0000        -2.189737       -59.5858
    3    2          10.0000       -81.364825     -2214.0495
    4    2          10.0000       -11.975168      -325.8609
    5    2          10.0000        -0.249072        -6.7776
    4    3          14.0000        -2.985533       -81.2405

  Creating fixed part of basis set: Ionic, confined, hydrogenic.
 
  H                    hydrogenic:
 
  List of hydrogenic basis orbitals: 
    n    l      effective z      eigenvalue [eV]  inner max. [A]     outer max. [A]     outer radius [A]   
    2    0         2.100000       -14.9728           0.193243           1.317208           4.583499
    2    1         3.500000       -41.6669           0.602369           0.602369           3.723403
 
 
  C                    hydrogenic:
 
  List of hydrogenic basis orbitals: 
    n    l      effective z      eigenvalue [eV]  inner max. [A]     outer max. [A]     outer radius [A]   
    2    1         1.700000        -9.7616           1.230570           1.230570           4.607917
    3    2         6.000000       -54.4224           0.792453           0.792453           3.883070
    2    0         4.900000       -81.6679           0.082559           0.562749           3.078220
 
 
  N                    hydrogenic:
 
  List of hydrogenic basis orbitals: 
    n    l      effective z      eigenvalue [eV]  inner max. [A]     outer max. [A]     outer radius [A]   
    2    1         1.800000       -10.9749           1.177451           1.177451           4.573712
    3    2         6.800000       -69.9026           0.704619           0.704619           3.538137
    3    0         5.800000       -50.8545           0.067388           1.191934           4.250239
 
 
  O                    hydrogenic:
 
  List of hydrogenic basis orbitals: 
    n    l      effective z      eigenvalue [eV]  inner max. [A]     outer max. [A]     outer radius [A]   
    2    1         1.800000       -10.9749           1.164242           1.164242           4.578029
    3    2         7.600000       -87.3180           0.624125           0.624125           3.251020
    3    0         6.400000       -61.9207           0.061167           1.081902           4.001998
 
 
  Au                   ion:

  List of free ionic orbitals and eigenvalues:
    n    l      energy [Ha]    energy [eV]
    1    0     -3257.305345    -88635.7882
    2    0      -534.468969    -14543.6406
    3    0      -125.037161     -3402.4343
    4    0       -27.646714      -752.3054
    5    0        -4.773414      -129.8912
    2    1      -461.196653    -12549.7994
    3    1      -104.253556     -2836.8836
    4    1       -20.878488      -568.1326
    5    1        -2.984283       -81.2065
    3    2       -82.168946     -2235.9308
    4    2       -12.777596      -347.6961
    5    2        -1.004504       -27.3340
    4    3        -3.787521      -103.0637


  List of ionic basis orbitals and eigenvalues:
    n    l      energy [Ha]    energy [eV]    outer radius [A]
    6    1        -0.535414       -14.5694       4.560053
    6    0        -0.835538       -22.7361       4.504645

 
  Au                   hydrogenic:
 
  List of hydrogenic basis orbitals: 
    n    l      effective z      eigenvalue [eV]  inner max. [A]     outer max. [A]     outer radius [A]   
    4    3         7.400000       -46.5648           1.145580           1.145580           4.504645
    3    2         2.500000        -9.0892           1.822958           1.822958           4.616141
 

  Adding cutoff potential to free-atom effective potential.
  Creating atomic-like basis functions for current effective potential.

  Species H                   :

  List of atomic basis orbitals and eigenvalues:
    n    l      energy [Ha]    energy [eV]    outer radius [A]
    1    0        -0.237593        -6.4652       4.527807


  Species C                   :

  List of atomic basis orbitals and eigenvalues:
    n    l      energy [Ha]    energy [eV]    outer radius [A]
    1    0       -10.046810      -273.3876       1.934409
    2    0        -0.503128       -13.6908       4.496620
    2    1        -0.191849        -5.2205       4.551928


  Species N                   :

  List of atomic basis orbitals and eigenvalues:
    n    l      energy [Ha]    energy [eV]    outer radius [A]
    1    0       -14.143973      -384.8771       1.637919
    2    0        -0.682008       -18.5584       4.463241
    2    1        -0.259605        -7.0642       4.518138


  Species O                   :

  List of atomic basis orbitals and eigenvalues:
    n    l      energy [Ha]    energy [eV]    outer radius [A]
    1    0       -18.926989      -515.0296       1.415765
    2    0        -0.880247       -23.9527       4.413171
    2    1        -0.331514        -9.0210       4.522403


  Species Au                  :

  List of atomic basis orbitals and eigenvalues:
    n    l      energy [Ha]    energy [eV]    outer radius [A]
    1    0     -3256.431199    -88612.0015       0.120816
    2    0      -533.654865    -14521.4877       0.313506
    3    0      -124.232088     -3380.5271       0.652830
    4    0       -26.843821      -730.4575       1.359424
    5    0        -3.974251      -108.1449       3.318406
    6    0        -0.207180        -5.6377       4.560053
    2    1      -460.384091    -12527.6885       0.329217
    3    1      -103.448928     -2814.9886       0.702515
    4    1       -20.075789      -546.2900       1.536198
    5    1        -2.189737       -59.5858       4.035315
    3    2       -81.364825     -2214.0495       0.755981
    4    2       -11.975168      -325.8609       1.868078
    5    2        -0.249072        -6.7776       4.504645
    4    3        -2.985533       -81.2405       3.198908

  Assembling full basis from fixed parts.
  | Species H :   atomic orbital   1 s accepted.
  | Species H :    hydro orbital   2 s accepted.
  | Species H :    hydro orbital   2 p accepted.
  | Species C :   atomic orbital   1 s accepted.
  | Species C :    hydro orbital   2 s accepted.
  | Species C :   atomic orbital   2 s accepted.
  | Species C :   atomic orbital   2 p accepted.
  | Species C :    hydro orbital   2 p accepted.
  | Species C :    hydro orbital   3 d accepted.
  | Species N :   atomic orbital   1 s accepted.
  | Species N :    hydro orbital   3 s accepted.
  | Species N :   atomic orbital   2 s accepted.
  | Species N :   atomic orbital   2 p accepted.
  | Species N :    hydro orbital   2 p accepted.
  | Species N :    hydro orbital   3 d accepted.
  | Species O :   atomic orbital   1 s accepted.
  | Species O :    hydro orbital   3 s accepted.
  | Species O :   atomic orbital   2 s accepted.
  | Species O :   atomic orbital   2 p accepted.
  | Species O :    hydro orbital   2 p accepted.
  | Species O :    hydro orbital   3 d accepted.
  | Species Au :   atomic orbital   1 s accepted.
  | Species Au :   atomic orbital   2 s accepted.
  | Species Au :   atomic orbital   3 s accepted.
  | Species Au :   atomic orbital   4 s accepted.
  | Species Au :   atomic orbital   5 s accepted.
  | Species Au :    ionic orbital   6 s accepted.
  | Species Au :   atomic orbital   6 s accepted.
  | Species Au :   atomic orbital   2 p accepted.
  | Species Au :   atomic orbital   3 p accepted.
  | Species Au :   atomic orbital   4 p accepted.
  | Species Au :   atomic orbital   5 p accepted.
  | Species Au :    ionic orbital   6 p accepted.
  | Species Au :   atomic orbital   3 d accepted.
  | Species Au :   atomic orbital   4 d accepted.
  | Species Au :   atomic orbital   5 d accepted.
  | Species Au :    hydro orbital   3 d accepted.
  | Species Au :   atomic orbital   4 f accepted.
  | Species Au :    hydro orbital   4 f accepted.
 
  Basis size parameters after reduction:
  | Total number of radial functions:       39
  | Total number of basis functions :     2173
 
  Per-task memory consumption for arrays in subroutine allocate_ext:
  |          14.911264MB.
  Testing on-site integration grid accuracy.
  |  Species  Function  <phi|h_atom|phi> (log., in eV)  <phi|h_atom|phi> (rad., in eV)
           1        1                 -6.4664147733                 -6.4652229287
           1        2                 13.7099062243                 13.7158503352
           1        3                 25.2661739479                 25.2663166526
           2        4               -273.3876219315               -273.3875919975
           2        5                -10.7204647108                -10.7200987593
           2        6                 17.5782951179                 17.5752355749
           2        7                 -5.2222267968                 -5.2237454457
           2        8                  8.6866956299                  8.6634852752
           2        9                 27.4984676176                 27.4985577282
           3       10               -384.8770852102               -384.8770238661
           3       11                 12.5754985571                 12.5755902269
           3       12                -15.7673946340                -15.7673131149
           3       13                 -7.0647024644                 -7.0651952861
           3       14                  8.8117910311                  8.7928686445
           3       15                 35.9641313273                 35.9643080892
           4       16               -515.0295626295               -515.0294562738
           4       17                 15.1698434419                 15.1699322204
           4       18                -21.6038822678                -21.6039118105
           4       19                 -9.0211123393                 -9.0212703513
           4       20                  8.3047696391                  8.2854840999
           4       21                 45.8428042125                 45.8427461222
           5       22             -88612.0014632773             -88611.6712034181 ***
           5       23             -14521.4877183143             -14521.4814000019
           5       24              -3380.5271185031              -3380.5267747562
           5       25               -730.4575387838               -730.4575126191
           5       26               -108.1448599552               -108.1448564322
           5       27                 -5.0942970293                 -5.0944290534
           5       28                  6.1115134680                  6.0788143741 ***
           5       29             -12527.6885190594             -12527.6885173588
           5       30              -2814.9885638790              -2814.9885483085
           5       31               -546.2900141438               -546.2900083823
           5       32                -59.5857773586                -59.5857755984
           5       33                  0.8801786283                  0.8779179064
           5       34              -2214.0495316651              -2214.0495265841
           5       35               -325.8609015442               -325.8608990421
           5       36                 -6.7779523966                 -6.7780549585
           5       37                  6.8774732661                  6.8534371039
           5       38                -81.2404736873                -81.2404731624
           5       39                 21.6950885227                 21.6950713512
 * Note: Onsite integrals marked "***" above are less accurate than
 * onsite_accuracy_threshold =    0.03000 eV. Usually, this is harmless.
 * However, one integral did have a negative value. This integral could be important.
 * When in doubt, tighten the "radial" and/or "radial_multiplier" flags to check.

  Preparing densities etc. for the partition functions (integrals / Hartree potential).

  Preparations completed.
  max(cpu_time)          :      0.392 s.
  Wall clock time (cpu1) :      0.393 s.
------------------------------------------------------------

------------------------------------------------------------
          Begin self-consistency loop: Initialization.

          Date     :  20221012, Time     :  124845.668
------------------------------------------------------------

  Initializing index lists of integration centers etc. from given atomic structure:
  | Number of centers in hartree potential         :        53
  | Number of centers in hartree multipole         :        53
  | Number of centers in electron density summation:        53
  | Number of centers in basis integrals           :        53
  | Number of centers in integrals                 :        53
  | Number of centers in hamiltonian               :        53
  Initializing relaxation algorithms.
  * Using 16 tasks for Scalapack Eigenvalue solver.
  Detailed listing of tasks and assigned k-points:
  (for non-periodic systems, the "k-point" denotes an internal label only)
   Task     0 k-point     1 on scc-gk1
   Task     1 k-point     1 on scc-gk1
   Task     2 k-point     1 on scc-gk1
   Task     3 k-point     1 on scc-gk1
   Task     4 k-point     1 on scc-gk1
   Task     5 k-point     1 on scc-gk1
   Task     6 k-point     1 on scc-gk1
   Task     7 k-point     1 on scc-gk1
   Task     8 k-point     1 on scc-gk1
   Task     9 k-point     1 on scc-gk1
   Task    10 k-point     1 on scc-gk1
   Task    11 k-point     1 on scc-gk1
   Task    12 k-point     1 on scc-gk1
   Task    13 k-point     1 on scc-gk1
   Task    14 k-point     1 on scc-gk1
   Task    15 k-point     1 on scc-gk1
  Tasks:    16 split into      4 X      4 BLACS grid
  Calculating block size based on n_basis =         2173  max_nprow =            4  max_npcol =            4
  ScaLAPACK block size set to:           16
  Allocating        2.367 MB for ovlp
  Allocating        2.367 MB for ham
  Allocating        2.367 MB for eigenvec
  Required Scalapack workspace - INTEGER:            1  REAL:             1
  Partitioning the integration grid into batches with parallel hashing+maxmin method.
  | Number of batches:     3539
  | Maximal batch size:     200
  | Minimal batch size:      49
  | Average batch size:     118.328
  | Standard deviation of batch sizes:      37.110

  Integration load balanced across    16 MPI tasks.
  Work distribution over tasks is as follows:
  Task     0 has      26109 integration points.
  Task     1 has      26147 integration points.
  Task     2 has      26255 integration points.
  Task     3 has      26139 integration points.
  Task     4 has      26190 integration points.
  Task     5 has      26135 integration points.
  Task     6 has      26231 integration points.
  Task     7 has      26143 integration points.
  Task     8 has      26227 integration points.
  Task     9 has      26130 integration points.
  Task    10 has      26141 integration points.
  Task    11 has      26138 integration points.
  Task    12 has      26132 integration points.
  Task    13 has      26130 integration points.
  Task    14 has      26263 integration points.
  Task    15 has      26252 integration points.
  Initializing partition tables, free-atom densities, potentials, etc. across the integration grid (initialize_grid_storage).
  | initialize_grid_storage: Actual outermost partition radius vs. multipole_radius_free
  | (-- VB: in principle, multipole_radius_free should be larger, hence this output)
  | Species        1: Confinement radius =              4.999999999999999 AA, multipole_radius_free =              5.054417573612229 AA.
  | Species        1: outer_partition_radius set to              5.054417573612229 AA .
  | Species        2: Confinement radius =              4.999999999999999 AA, multipole_radius_free =              5.019602836301480 AA.
  | Species        2: outer_partition_radius set to              5.019602836301480 AA .
  | Species        3: Confinement radius =              4.999999999999999 AA, multipole_radius_free =              5.043624274424571 AA.
  | Species        3: outer_partition_radius set to              5.043624274424571 AA .
  | Species        4: Confinement radius =              4.999999999999999 AA, multipole_radius_free =              5.048384829883283 AA.
  | Species        4: outer_partition_radius set to              5.048384829883283 AA .
  | Species        5: Confinement radius =              4.999999999999999 AA, multipole_radius_free =              5.028561921230412 AA.
  | Species        5: outer_partition_radius set to              5.028561921230412 AA .
  | Original list of interatomic distances with          53 x         53 entries is created.
  | Net number of integration points:   418762
  | of which are non-zero points    :   382785
  Renormalizing the initial density to the exact electron count on the 3D integration grid.
  | Initial density: Formal number of electrons (from input files) :    2904.0000000000
  | Integrated number of electrons on 3D grid     :    2904.0001131722
  | Charge integration error                      :       0.0001131722
  | Normalization factor for density and gradient :       0.9999999610
  Obtaining max. number of non-zero basis functions in each batch (get_n_compute_maxes).
  | Maximal number of non-zero basis functions:      594 in task     0
  | Maximal number of non-zero basis functions:      584 in task     1
  | Maximal number of non-zero basis functions:      584 in task     2
  | Maximal number of non-zero basis functions:      582 in task     3
  | Maximal number of non-zero basis functions:      602 in task     4
  | Maximal number of non-zero basis functions:      579 in task     5
  | Maximal number of non-zero basis functions:      587 in task     6
  | Maximal number of non-zero basis functions:      584 in task     7
  | Maximal number of non-zero basis functions:      578 in task     8
  | Maximal number of non-zero basis functions:      611 in task     9
  | Maximal number of non-zero basis functions:      586 in task    10
  | Maximal number of non-zero basis functions:      593 in task    11
  | Maximal number of non-zero basis functions:      588 in task    12
  | Maximal number of non-zero basis functions:      587 in task    13
  | Maximal number of non-zero basis functions:      597 in task    14
  | Maximal number of non-zero basis functions:      579 in task    15
  Selecting the method for density update.
  Density matrix based charge density update selected.
  Scalapack and density-matrix based density update requested:
  Switching to packed matrix format "index" by default.
  Hamiltonian matrix size:
  | Size of matrix non-packed:               2362051
  | Size of matrix packed:          873218
  Allocating       31.535 MB for KS_eigenvector
  Integrating Hamiltonian matrix: batch-based integration.
  Time summed over all CPUs for integration: real work        7.888 s, elapsed        8.212 s
  Integrating overlap matrix.
  Time summed over all CPUs for integration: real work        4.379 s, elapsed        4.580 s
  Decreasing sparse matrix size:
   Tolerance:  9.999999824516700E-014
   Hamiltonian matrix
  | Array has   807397 nonzero elements out of   873218 elements
  | Sparsity factor is 0.075
   Overlap matrix
  | Array has   770950 nonzero elements out of   873218 elements
  | Sparsity factor is 0.117
  New size of hamiltonian matrix:      807437
  Deallocating overlap matrix.

  Updating Kohn-Sham eigenvalues and eigenvectors using ELSI and the ELPA eigensolver.
  ELPA settings:
  | ELPA solver          2
  | Time full => band           :     0.121 s
  | Time band => tridiagonal    :     0.041 s
  | Time solve tridiagonal      :     0.032 s
  Overlap matrix is nonsingular
  | Lowest eigenvalue of overlap  :  0.17E-02
  | Highest eigenvalue of overlap :  0.67E+01
  Finished singularity check of overlap matrix
  | Time :     0.196 s
  Finished Cholesky decomposition
  | Time :     0.061 s
  Finished transformation to standard eigenproblem
  | Time :     0.063 s
  Starting ELPA eigensolver
  | Time full => band           :     0.117 s
  | Time band => tridiagonal    :     0.041 s
  | Time solve tridiagonal      :     0.027 s
  | Time ev tridiagonal => band :     0.147 s
  | Time ev band => full        :     0.061 s
  Finished solving standard eigenproblem
  | Time :     0.393 s
  Finished back-transformation of eigenvectors
  | Time :     0.040 s

  Obtaining occupation numbers and chemical potential using ELSI.
  | Chemical potential (Fermi level):    -4.53568005eV
  Writing Kohn-Sham eigenvalues.

  State    Occupation    Eigenvalue [Ha]    Eigenvalue [eV]
      1       2.00000       -3256.415443       -88611.57270
      2       2.00000       -3256.415402       -88611.57160
      3       2.00000       -3256.415307       -88611.56901
      4       2.00000       -3256.415234       -88611.56701
      5       2.00000       -3256.415083       -88611.56293
      6       2.00000       -3256.415081       -88611.56287
      7       2.00000       -3256.415010       -88611.56092
      8       2.00000       -3256.414901       -88611.55796
      9       2.00000       -3256.414748       -88611.55380
     10       2.00000       -3256.414748       -88611.55380
     11       2.00000       -3256.414675       -88611.55180
     12       2.00000       -3256.414528       -88611.54780
     13       2.00000       -3256.414511       -88611.54735
     14       2.00000       -3256.414446       -88611.54559
     15       2.00000       -3256.414055       -88611.53495
     16       2.00000       -3256.413940       -88611.53181
     17       2.00000       -3256.413602       -88611.52262
     18       2.00000       -3256.413569       -88611.52172
     19       2.00000       -3256.413567       -88611.52168
     20       2.00000       -3256.413539       -88611.52090
     21       2.00000       -3256.413514       -88611.52021
     22       2.00000       -3256.413498       -88611.51979
     23       2.00000       -3256.413498       -88611.51979
     24       2.00000       -3256.413486       -88611.51946
     25       2.00000       -3256.413082       -88611.50845
     26       2.00000       -3256.413082       -88611.50845
     27       2.00000       -3256.413082       -88611.50845
     28       2.00000       -3256.413082       -88611.50845
     29       2.00000       -3256.413082       -88611.50845
     30       2.00000       -3256.413082       -88611.50845
     31       2.00000       -3256.413082       -88611.50845
     32       2.00000       -3256.413082       -88611.50845
     33       2.00000       -3256.413082       -88611.50845
     34       2.00000       -3256.413082       -88611.50845
     35       2.00000       -3256.412248       -88611.48578
     36       2.00000       -3256.412248       -88611.48578
     37       2.00000        -533.656736       -14521.53863
     38       2.00000        -533.656695       -14521.53752
     39       2.00000        -533.656599       -14521.53490
     40       2.00000        -533.656526       -14521.53291
     41       2.00000        -533.656375       -14521.52881
     42       2.00000        -533.656373       -14521.52875
     43       2.00000        -533.656299       -14521.52674
     44       2.00000        -533.656190       -14521.52376
     45       2.00000        -533.656038       -14521.51965
     46       2.00000        -533.656038       -14521.51965
     47       2.00000        -533.655963       -14521.51761
     48       2.00000        -533.655816       -14521.51360
     49       2.00000        -533.655799       -14521.51315
     50       2.00000        -533.655734       -14521.51137
     51       2.00000        -533.655342       -14521.50070
     52       2.00000        -533.655226       -14521.49756
     53       2.00000        -533.654888       -14521.48834
     54       2.00000        -533.654854       -14521.48743
     55       2.00000        -533.654853       -14521.48739
     56       2.00000        -533.654824       -14521.48660
     57       2.00000        -533.654798       -14521.48591
     58       2.00000        -533.654783       -14521.48550
     59       2.00000        -533.654783       -14521.48550
     60       2.00000        -533.654771       -14521.48516
     61       2.00000        -533.654365       -14521.47412
     62       2.00000        -533.654365       -14521.47412
     63       2.00000        -533.654365       -14521.47412
     64       2.00000        -533.654365       -14521.47412
     65       2.00000        -533.654365       -14521.47412
     66       2.00000        -533.654365       -14521.47412
     67       2.00000        -533.654365       -14521.47412
     68       2.00000        -533.654365       -14521.47412
     69       2.00000        -533.654365       -14521.47412
     70       2.00000        -533.654365       -14521.47412
     71       2.00000        -533.653529       -14521.45135
     72       2.00000        -533.653529       -14521.45135
     73       2.00000        -460.388524       -12527.80915
     74       2.00000        -460.388523       -12527.80912
     75       2.00000        -460.388520       -12527.80905
     76       2.00000        -460.388483       -12527.80804
     77       2.00000        -460.388482       -12527.80801
     78       2.00000        -460.388480       -12527.80794
     79       2.00000        -460.388388       -12527.80544
     80       2.00000        -460.388387       -12527.80542
     81       2.00000        -460.388383       -12527.80531
     82       2.00000        -460.388314       -12527.80344
     83       2.00000        -460.388314       -12527.80342
     84       2.00000        -460.388310       -12527.80331
     85       2.00000        -460.388164       -12527.79934
     86       2.00000        -460.388163       -12527.79932
     87       2.00000        -460.388161       -12527.79928
     88       2.00000        -460.388161       -12527.79926
     89       2.00000        -460.388159       -12527.79922
     90       2.00000        -460.388157       -12527.79916
     91       2.00000        -460.388093       -12527.79741
     92       2.00000        -460.388084       -12527.79717
     93       2.00000        -460.388083       -12527.79713
     94       2.00000        -460.387984       -12527.79445
     95       2.00000        -460.387974       -12527.79418
     96       2.00000        -460.387973       -12527.79416
     97       2.00000        -460.387827       -12527.79017
     98       2.00000        -460.387827       -12527.79017
     99       2.00000        -460.387827       -12527.79017
    100       2.00000        -460.387827       -12527.79017
    101       2.00000        -460.387823       -12527.79008
    102       2.00000        -460.387823       -12527.79008
    103       2.00000        -460.387756       -12527.78824
    104       2.00000        -460.387749       -12527.78807
    105       2.00000        -460.387747       -12527.78801
    106       2.00000        -460.387608       -12527.78421
    107       2.00000        -460.387603       -12527.78407
    108       2.00000        -460.387600       -12527.78401
    109       2.00000        -460.387591       -12527.78376
    110       2.00000        -460.387586       -12527.78362
    111       2.00000        -460.387584       -12527.78356
    112       2.00000        -460.387526       -12527.78200
    113       2.00000        -460.387521       -12527.78184
    114       2.00000        -460.387518       -12527.78178
    115       2.00000        -460.387133       -12527.77131
    116       2.00000        -460.387129       -12527.77119
    117       2.00000        -460.387127       -12527.77113
    118       2.00000        -460.387017       -12527.76814
    119       2.00000        -460.387014       -12527.76805
    120       2.00000        -460.387012       -12527.76799
    121       2.00000        -460.386676       -12527.75886
    122       2.00000        -460.386676       -12527.75885
    123       2.00000        -460.386676       -12527.75885
    124       2.00000        -460.386644       -12527.75800
    125       2.00000        -460.386642       -12527.75794
    126       2.00000        -460.386641       -12527.75791
    127       2.00000        -460.386641       -12527.75790
    128       2.00000        -460.386641       -12527.75790
    129       2.00000        -460.386640       -12527.75788
    130       2.00000        -460.386614       -12527.75716
    131       2.00000        -460.386612       -12527.75711
    132       2.00000        -460.386610       -12527.75706
    133       2.00000        -460.386588       -12527.75647
    134       2.00000        -460.386587       -12527.75643
    135       2.00000        -460.386584       -12527.75637
    136       2.00000        -460.386571       -12527.75602
    137       2.00000        -460.386571       -12527.75602
    138       2.00000        -460.386571       -12527.75602
    139       2.00000        -460.386571       -12527.75602
    140       2.00000        -460.386571       -12527.75602
    141       2.00000        -460.386571       -12527.75602
    142       2.00000        -460.386561       -12527.75573
    143       2.00000        -460.386559       -12527.75568
    144       2.00000        -460.386557       -12527.75562
    145       2.00000        -460.386154       -12527.74466
    146       2.00000        -460.386154       -12527.74466
    147       2.00000        -460.386154       -12527.74466
    148       2.00000        -460.386154       -12527.74466
    149       2.00000        -460.386154       -12527.74466
    150       2.00000        -460.386154       -12527.74466
    151       2.00000        -460.386154       -12527.74466
    152       2.00000        -460.386154       -12527.74466
    153       2.00000        -460.386154       -12527.74466
    154       2.00000        -460.386154       -12527.74466
    155       2.00000        -460.386154       -12527.74466
    156       2.00000        -460.386154       -12527.74466
    157       2.00000        -460.386154       -12527.74466
    158       2.00000        -460.386154       -12527.74466
    159       2.00000        -460.386154       -12527.74466
    160       2.00000        -460.386154       -12527.74466
    161       2.00000        -460.386154       -12527.74466
    162       2.00000        -460.386154       -12527.74466
    163       2.00000        -460.386154       -12527.74466
    164       2.00000        -460.386154       -12527.74466
    165       2.00000        -460.386152       -12527.74460
    166       2.00000        -460.386152       -12527.74460
    167       2.00000        -460.386152       -12527.74460
    168       2.00000        -460.386152       -12527.74460
    169       2.00000        -460.386152       -12527.74460
    170       2.00000        -460.386152       -12527.74460
    171       2.00000        -460.386152       -12527.74460
    172       2.00000        -460.386152       -12527.74460
    173       2.00000        -460.386152       -12527.74460
    174       2.00000        -460.386152       -12527.74460
    175       2.00000        -460.385320       -12527.72195
    176       2.00000        -460.385320       -12527.72195
    177       2.00000        -460.385316       -12527.72186
    178       2.00000        -460.385316       -12527.72186
    179       2.00000        -460.385316       -12527.72186
    180       2.00000        -460.385316       -12527.72186
    181       2.00000        -124.236079        -3380.63572
    182       2.00000        -124.236038        -3380.63459
    183       2.00000        -124.235937        -3380.63186
    184       2.00000        -124.235863        -3380.62983
    185       2.00000        -124.235709        -3380.62566
    186       2.00000        -124.235707        -3380.62560
    187       2.00000        -124.235620        -3380.62322
    188       2.00000        -124.235509        -3380.62019
    189       2.00000        -124.235367        -3380.61634
    190       2.00000        -124.235367        -3380.61634
    191       2.00000        -124.235282        -3380.61403
    192       2.00000        -124.235132        -3380.60996
    193       2.00000        -124.235115        -3380.60950
    194       2.00000        -124.235049        -3380.60769
    195       2.00000        -124.234651        -3380.59684
    196       2.00000        -124.234533        -3380.59365
    197       2.00000        -124.234189        -3380.58428
    198       2.00000        -124.234153        -3380.58331
    199       2.00000        -124.234152        -3380.58327
    200       2.00000        -124.234121        -3380.58243
    201       2.00000        -124.234095        -3380.58173
    202       2.00000        -124.234083        -3380.58139
    203       2.00000        -124.234083        -3380.58139
    204       2.00000        -124.234067        -3380.58097
    205       2.00000        -124.233654        -3380.56974
    206       2.00000        -124.233654        -3380.56974
    207       2.00000        -124.233654        -3380.56974
    208       2.00000        -124.233654        -3380.56974
    209       2.00000        -124.233654        -3380.56974
    210       2.00000        -124.233654        -3380.56974
    211       2.00000        -124.233654        -3380.56974
    212       2.00000        -124.233654        -3380.56974
    213       2.00000        -124.233654        -3380.56974
    214       2.00000        -124.233654        -3380.56974
    215       2.00000        -124.232798        -3380.54644
    216       2.00000        -124.232798        -3380.54644
    217       2.00000        -103.453509        -2815.11322
    218       2.00000        -103.453502        -2815.11303
    219       2.00000        -103.453480        -2815.11242
    220       2.00000        -103.453469        -2815.11213
    221       2.00000        -103.453459        -2815.11185
    222       2.00000        -103.453439        -2815.11131
    223       2.00000        -103.453370        -2815.10943
    224       2.00000        -103.453364        -2815.10927
    225       2.00000        -103.453332        -2815.10839
    226       2.00000        -103.453294        -2815.10737
    227       2.00000        -103.453290        -2815.10724
    228       2.00000        -103.453258        -2815.10638
    229       2.00000        -103.453140        -2815.10317
    230       2.00000        -103.453137        -2815.10310
    231       2.00000        -103.453136        -2815.10305
    232       2.00000        -103.453134        -2815.10301
    233       2.00000        -103.453106        -2815.10225
    234       2.00000        -103.453104        -2815.10219
    235       2.00000        -103.453088        -2815.10176
    236       2.00000        -103.453017        -2815.09982
    237       2.00000        -103.453006        -2815.09954
    238       2.00000        -103.452982        -2815.09888
    239       2.00000        -103.452900        -2815.09664
    240       2.00000        -103.452895        -2815.09651
[...]
  | Density mixing                             :        0.007 s           0.007 s
  | Hartree multipole update                   :        0.008 s           0.009 s
  | Hartree multipole summation                :        1.291 s           1.294 s
  | Integration                                :        0.507 s           0.508 s
  | Solution of K.-S. eqns.                    :        0.561 s           0.562 s
  | Total energy evaluation                    :        0.003 s           0.015 s

  Partial memory accounting:
  | Current value for overall tracked memory usage on task 0  :          48.331 MB
  | Peak value for overall tracked memory usage on task 0     :          70.828 MB after allocating wave_pulay
  | Largest tracked array allocation on task 0 so far         :          31.535 MB  when allocating +KS_eigenvector
  Note:  These values currently only include a subset of arrays which are explicitly tracked.
  The "true" memory usage will be greater.
------------------------------------------------------------
  |------------------------------------------
  | Final ELSI Output
  |------------------------------------------
  | Number of basis functions :         2173
  | Number of electrons       :       2904.0
  | Number of spins           :            1
  | Number of k-points        :            1
  | Number of states          :         1814
  | Solver                    :         ELPA
  | Parallel mode             :   MULTI_PROC
  | Matrix format             :  BLACS_DENSE
  | Matrix sparsity           :        0.658
  |------------------------------------------
  | ELSI Project (c)  elsi-interchange.org
  |------------------------------------------

  Energy and forces in a compact form:
  | Total energy uncorrected      :         -0.192932638853260E+08 eV
  | Total energy corrected        :         -0.192932638853260E+08 eV  <-- do not rely on this value for anything but (periodic) metals
  | Electronic free energy        :         -0.192932638853260E+08 eV
  Total atomic forces (unitary forces were cleaned, then relaxation constraints were applied) [eV/Ang]:
  |   1          0.736140273215966E-03         -0.443884951305286E-03          0.174235701216816E-02
  |   2          0.277464878429311E-03          0.265807681950025E-02         -0.125299598280348E-02
  |   3         -0.916200736640257E-04          0.155337707626881E-02         -0.413650257166319E-02
  |   4          0.131172206623270E-02          0.117458187159600E-02         -0.157287353522278E-02
  |   5          0.907726977783800E-03          0.315142650108165E-02         -0.389248115201269E-03
  |   6          0.106570498628881E-02          0.209555204231333E-02         -0.146007350078354E-02
  |   7         -0.708431815676684E-04          0.355130233756613E-02         -0.123336475375217E-02
  |   8         -0.244317677557903E-02          0.160965048706528E-02         -0.901169815837881E-03
  |   9         -0.948761922971377E-03          0.853443419507343E-03         -0.141737624630175E-02
  |  10         -0.148803755857669E-02         -0.926264478529320E-03         -0.114402739584234E-02
  |  11         -0.702956021710218E-03          0.130009884355448E-02         -0.863696006941907E-03
  |  12         -0.434656905225396E-02          0.560847493400007E-02          0.253513367483742E-02
  |  13         -0.140797086555203E-02          0.986353443733173E-03         -0.491458115141312E-05
  |  14         -0.182989735062138E-02          0.253603862159277E-02          0.392553706758966E-02
  |  15         -0.103104712704968E-02          0.184866666830588E-02          0.928870299180987E-02
  |  16         -0.356905101164918E-03          0.744546043477288E-03          0.879827989002564E-02
  |  17          0.157129554081761E-02          0.291041095921624E-02         -0.109945671482008E-02
  |  18          0.267086078681905E-02         -0.600542000860105E-02          0.496725228091409E-02
  |  19          0.136281759678654E-02         -0.178894715807601E-02         -0.135611112171972E-02
  |  20         -0.306655117703089E-03         -0.117565903669382E-02          0.141298625277582E-02
  |  21          0.202269511391303E-02         -0.735761385623665E-03         -0.547170668361660E-03
  |  22          0.000000000000000E+00          0.000000000000000E+00          0.000000000000000E+00
  |  23          0.000000000000000E+00          0.000000000000000E+00          0.000000000000000E+00
  |  24          0.000000000000000E+00          0.000000000000000E+00          0.000000000000000E+00
  |  25          0.000000000000000E+00          0.000000000000000E+00          0.000000000000000E+00
  |  26          0.000000000000000E+00          0.000000000000000E+00          0.000000000000000E+00
  |  27          0.000000000000000E+00          0.000000000000000E+00          0.000000000000000E+00
  |  28          0.000000000000000E+00          0.000000000000000E+00          0.000000000000000E+00
  |  29          0.000000000000000E+00          0.000000000000000E+00          0.000000000000000E+00
  |  30          0.000000000000000E+00          0.000000000000000E+00          0.000000000000000E+00
  |  31          0.000000000000000E+00          0.000000000000000E+00          0.000000000000000E+00
  |  32          0.000000000000000E+00          0.000000000000000E+00          0.000000000000000E+00
  |  33          0.000000000000000E+00          0.000000000000000E+00          0.000000000000000E+00
  |  34          0.000000000000000E+00          0.000000000000000E+00          0.000000000000000E+00
  |  35          0.000000000000000E+00          0.000000000000000E+00          0.000000000000000E+00
  |  36         -0.217950883296652E-02          0.452585423234056E-02          0.110067449580265E-02
  |  37         -0.245375746523601E-03          0.385178856139573E-03          0.123967240742304E-02
  |  38         -0.168422118014325E-02         -0.844435850997634E-03         -0.292061445510061E-02
  |  39          0.124428460588519E-02          0.383581243403147E-03         -0.420622231956502E-02
  |  40          0.000000000000000E+00          0.000000000000000E+00          0.000000000000000E+00
  |  41          0.000000000000000E+00          0.000000000000000E+00          0.000000000000000E+00
  |  42          0.000000000000000E+00          0.000000000000000E+00          0.000000000000000E+00
  |  43          0.000000000000000E+00          0.000000000000000E+00          0.000000000000000E+00
  |  44          0.000000000000000E+00          0.000000000000000E+00          0.000000000000000E+00
  |  45          0.000000000000000E+00          0.000000000000000E+00          0.000000000000000E+00
  |  46          0.000000000000000E+00          0.000000000000000E+00          0.000000000000000E+00
  |  47          0.000000000000000E+00          0.000000000000000E+00          0.000000000000000E+00
  |  48          0.000000000000000E+00          0.000000000000000E+00          0.000000000000000E+00
  |  49          0.000000000000000E+00          0.000000000000000E+00          0.000000000000000E+00
  |  50          0.000000000000000E+00          0.000000000000000E+00          0.000000000000000E+00
  |  51          0.000000000000000E+00          0.000000000000000E+00          0.000000000000000E+00
  |  52          0.000000000000000E+00          0.000000000000000E+00          0.000000000000000E+00
  |  53          0.000000000000000E+00          0.000000000000000E+00          0.000000000000000E+00

  ------------------------------------ 
  Start decomposition of the XC Energy 
  ------------------------------------ 
  X and C from original XC functional choice 
  Hartree-Fock Energy :          0.000000000 Ha              0.000000000 eV
  X Energy            :     -13119.223727357 Ha        -356992.241186648 eV
  C Energy            :       -176.446551213 Ha          -4801.354948757 eV
  Total XC Energy     :     -13295.670278571 Ha        -361793.596135404 eV
  ------------------------------------ 
  LDA X and C from self-consistent density 
  X Energy LDA        :     -12590.208830516 Ha        -342597.013422473 eV
  C Energy LDA        :       -301.767265726 Ha          -8211.505097192 eV
  ------------------------------------ 
  End decomposition of the XC Energy 
  ------------------------------------ 

------------------------------------------------------------
  Relaxation / MD: End force evaluation.       :  max(cpu_time)    wall_clock(cpu1)
  | Time for this force evaluation             :       30.434 s          30.585 s

------------------------------------------------------------
  Geometry optimization: Attempting to predict improved coordinates.

  Net remaining forces (excluding translations, rotations) in present geometry:
  Maximum force component is  0.928870E-02 eV/A.
  Present geometry is converged.

------------------------------------------------------------
  Final atomic structure:
                         x [A]             y [A]             z [A]
            atom        -2.01992630        2.30286800       11.22774460  N
            atom        -2.74383015        3.40375008       11.41002961  C
            atom        -1.83869515        2.14436621        9.86312956  C
            atom        -2.47493345        3.17694631        9.21281378  C
            atom        -3.03615230        3.95897279       10.20588325  N
            atom        -3.05753615        3.80766772       12.36633250  H
            atom        -2.56876275        3.41372458        8.15932963  H
            atom        -1.07662947        0.98616173        9.31824864  C
            atom        -0.04886888        1.00395054        9.72078134  H
            atom        -1.00090216        1.07465949        8.22239582  H
            atom        -1.74035577       -0.35003795        9.67266524  C
            atom        -1.76186870       -0.48424251       10.77199873  H
            atom        -2.77540057       -0.36835198        9.30445905  H
            atom        -1.01175375       -1.46722958        9.02403795  N
            atom        -0.04978289       -1.51837308        9.37534437  H
            atom        -1.45274242       -2.36177398        9.25537830  H
            atom        -3.57138546        4.81067253       10.06341686  H
            atom        -1.00858267       -1.21582941        6.80260098  Au
            atom        -0.97657089        0.92650773        5.00850514  Au
            atom         0.93975652       -1.30136560        4.89903185  Au
            atom        -1.95851611       -1.81939133        4.40845041  Au
            atom        -0.98364858        2.90868289        2.98397374  Au
            atom         0.89728549        0.72320790        2.94342713  Au
            atom         2.77821955       -1.46226708        2.90288050  Au
            atom        -1.90122553        0.22622760        2.45639062  Au
            atom        -0.02029146       -1.95924740        2.41584399  Au
            atom        -2.81880248       -2.45622772        1.92880748  Au
            atom         0.91757695        2.68245530        0.82758314  Au
            atom         2.79851101        0.49698031        0.78703651  Au
            atom        -1.88093406        2.18547499        0.34054663  Au
            atom         0.00000000        0.00000000        0.30000000  Au
            atom         1.88093406       -2.18547499        0.25945338  Au
            atom        -2.79851101       -0.49698032       -0.18703650  Au
            atom        -0.91757696       -2.68245530       -0.22758313  Au
            atom        -3.78215957        2.41170258        2.49693724  Au
            atom        -1.32633988        0.93262180       12.79543029  Au
            atom        -0.22788625       -0.89913224       14.42610565  Au
            atom         0.17353687        1.98434511       14.83246463  Au
            atom        -2.58247428        0.79279881       15.18266642  Au
            atom         0.80067538       -2.72226339       16.33960063  Au
            atom         1.18422876        0.11978134       16.64213394  Au
            atom         1.56778214        2.96182608       16.94466725  Au
            atom        -1.43900279       -1.02624961       16.99016710  Au
            atom        -1.05544942        1.81579512       17.29270041  Au
            atom        -3.67868099        0.66976417       17.64073358  Au
            atom         2.23967818       -1.69601378       18.61818365  Au
            atom         2.62323157        1.14603095       18.92071695  Au
            atom        -0.38355337       -2.84204474       18.96621680  Au
            atom         0.00000000        0.00000000       19.26875011  Au
            atom         0.38355338        2.84204474       19.57128342  Au
            atom        -2.62323155       -1.14603095       19.61678328  Au
            atom        -2.23967818        1.69601379       19.91931659  Au
            atom        -1.82255617       -3.86829434       16.68763380  Au
------------------------------------------------------------

------------------------------------------------------------------------------
  Final output of selected total energy values:

  The following output summarizes some interesting total energy values
  at the end of a run (AFTER all relaxation, molecular dynamics, etc.).

  | Total energy of the DFT / Hartree-Fock s.c.f. calculation      :      -19293263.885326032 eV
  | Final zero-broadening corrected energy (caution - metals only) :      -19293263.885326032 eV
  | For reference only, the value of 1 Hartree used in FHI-aims is :             27.211384500 eV

  Before relying on these values, please be sure to understand exactly which
  total energy value is referred to by a given number. Different objects may
  all carry the same name 'total energy'. Definitions:

  Total energy of the DFT / Hartree-Fock s.c.f. calculation:
  | Note that this energy does not include ANY quantities calculated after the
  | s.c.f. cycle, in particular not ANY RPA, MP2, etc. many-body perturbation terms.

  Final zero-broadening corrected energy:
  | For metallic systems only, a broadening of the occupation numbers at the Fermi
  | level can be extrapolated back to zero broadening by an electron-gas inspired
  | formula. For all systems that are not real metals, this value can be
  | meaningless and should be avoided.

------------------------------------------------------------------------------
  Methods described in the following list of references were used in this FHI-aims run.
  If you publish the results, please make sure to cite these reference if they apply.
  FHI-aims is an academic code, and for our developers (often, Ph.D. students
  and postdocs), scientific credit in the community is essential.
  Thank you for helping us!

  For any use of FHI-aims, please cite:

    Volker Blum, Ralf Gehrke, Felix Hanke, Paula Havu, Ville Havu,
    Xinguo Ren, Karsten Reuter, and Matthias Scheffler
    'Ab initio molecular simulations with numeric atom-centered orbitals'
    Computer Physics Communications 180, 2175-2196 (2009)
    http://dx.doi.org/10.1016/j.cpc.2009.06.022


  The scalable eigensolver library ELPA was used in your run.
  ELPA is essential especially for large systems on hundreds or thousands of CPUs.
  For ELPA, please cite:

    Andreas Marek, Volker Blum, Rainer Johanni, Ville Havu, Bruno Lang,
    Thomas Auckenthaler, Alexander Heinecke, Hans-Joachim Bungartz, and Hermann Lederer,
    'The ELPA Library - Scalable Parallel Eigenvalue Solutions
    for Electronic Structure Theory and Computational Science'
    The Journal of Physics: Condensed Matter 26, 213201 (2014).
    http://dx.doi.org/10.1088/0953-8984/26/21/213201


  The ELSI infrastructure was used in your run to solve the Kohn-Sham electronic structure.
  Please check out http://elsi-interchange.org to learn more.
  If scalability is important for your project, please acknowledge ELSI by citing:

    V. W-z. Yu, F. Corsetti, A. Garcia, W. P. Huhn, M. Jacquelin, W. Jia,
    B. Lange, L. Lin, J. Lu, W. Mi, A. Seifitokaldani, A. Vazquez-Mayagoitia,
    C. Yang, H. Yang, and V. Blum
    'ELSI: A unified software interface for Kohn-Sham electronic structure solvers'
    Computer Physics Communications 222, 267-285 (2018).
    http://dx.doi.org/10.1016/j.cpc.2017.09.007


  For the real-space grid partitioning and parallelization used in this calculation, please cite:

    Ville Havu, Volker Blum, Paula Havu, and Matthias Scheffler,
    'Efficient O(N) integration for all-electron electronic structure calculation'
    'using numerically tabulated basis functions'
    Journal of Computational Physics 228, 8367-8379 (2009).
    http://dx.doi.org/10.1016/j.jcp.2009.08.008

  Of course, there are many other important community references, e.g., those cited in the
  above references. Our list is limited to references that describe implementations in the
  FHI-aims code. The reason is purely practical (length of this list) - please credit others as well.

 * A warning was issued further up regarding the accuracy of onsite integrals.
   An integral with a negative eigenvalue was among the flagged integrals.
   In most standard situations, this warning is probably harmless.
   If needed, this can be verified by adjusting the radial_multiplier flag.

------------------------------------------------------------
          Leaving FHI-aims.
          Date     :  20221012, Time     :  125341.419

          Computational steps:
          | Number of self-consistency cycles          :           93
          | Number of SCF (re)initializations          :            8
          | Number of relaxation steps                 :            7

          Detailed time accounting                     :  max(cpu_time)    wall_clock(cpu1)
          | Total time                                 :      295.440 s         296.219 s
          | Preparation time                           :        0.392 s           0.393 s
          | Boundary condition initalization           :        0.136 s           0.078 s
          | Grid partitioning                          :        1.594 s           1.598 s
          | Preloading free-atom quantities on grid    :        1.580 s           1.585 s
          | Free-atom superposition energy             :        0.307 s           0.307 s
          | Total time for integrations                :       52.825 s          52.953 s
          | Total time for solution of K.-S. equations :       54.914 s          55.052 s
          | Total time for EV reorthonormalization     :        1.941 s           1.942 s
          | Total time for density & force components  :      143.476 s         143.780 s
          | Total time for mixing                      :        0.531 s           0.536 s
          | Total time for Hartree multipole update    :        0.748 s           0.751 s
          | Total time for Hartree multipole sum       :       35.915 s          36.003 s
          | Total time for total energy evaluation     :        0.027 s           0.085 s
          | Total time for scaled ZORA corrections     :        0.000 s           0.000 s

          Partial memory accounting:
          | Residual value for overall tracked memory usage across tasks :           0.000 MB (should be 0.000 MB)
          | Peak values for overall tracked memory usage (after allocating wave_pulay):
          |   Minimum:       70.079 MB (on task 11)
          |   Maximum:       70.997 MB (on task 13)
          |   Average:       70.645 MB
          | Largest tracked array allocation (+KS_eigenvector):
          |   Minimum:       31.535 MB (on task  1)
          |   Maximum:       31.535 MB (on task  1)
          |   Average:       31.535 MB
          Note:  These values currently only include a subset of arrays which are explicitly tracked.
          The "true" memory usage will be greater.

          Have a nice day.
------------------------------------------------------------
